REMARK  9 active torsions:
REMARK  status: ('A' for Active; 'I' for Inactive)
REMARK    1  A    between atoms: O_2  and  C_3 
REMARK    2  A    between atoms: C_4  and  N_5 
REMARK    3  A    between atoms: N_5  and  C_7 
REMARK    4  A    between atoms: C_13  and  N_14 
REMARK    5  A    between atoms: N_14  and  C_16 
REMARK    6  A    between atoms: C_21  and  S_22 
REMARK    7  A    between atoms: S_22  and  C_25 
REMARK    8  A    between atoms: C_32  and  N_33 
REMARK    9  A    between atoms: C_36  and  N_37 
ROOT
ATOM      1  C   UNL d   1      -1.324  -0.211   1.839  0.00  0.00     0.684 A 
ATOM      2  N   UNL d   1      -0.973  -1.514   1.728  0.00  0.00    -0.200 N 
ATOM      3  HN  UNL d   1      -0.283  -1.818   1.041  1.00  0.00     0.183 HD
ATOM      4  C   UNL d   1      -1.561  -2.393   2.554  0.00  0.00     0.133 A 
ATOM      5  C   UNL d   1      -2.488  -1.983   3.478  0.00  0.00     0.094 A 
ATOM      6 CL   UNL d   1      -3.210  -3.219   4.491  0.00  0.00    -0.079 Cl
ATOM      7  C   UNL d   1      -2.851  -0.634   3.591  0.00  0.00     0.144 A 
ATOM      8  N   UNL d   1      -2.230   0.196   2.740  0.00  0.00    -0.175 N 
ATOM      9  HN  UNL d   1      -2.459   1.189   2.779  1.00  0.00     0.186 HD
ENDROOT
BRANCH   1  10
ATOM     10  N   UNL d   1      -0.746   0.810   1.019  0.00  0.00    -0.189 N 
ATOM     11  HN  UNL d   1      -1.177   1.735   1.003  1.00  0.00     0.184 HD
BRANCH  10  12
ATOM     12  C   UNL d   1       0.411   0.574   0.227  0.00  0.00     0.082 A 
ATOM     13  C   UNL d   1       1.153   1.624  -0.254  0.00  0.00     0.097 A 
ATOM     14  C   UNL d   1       2.288   1.368  -1.004  0.00  0.00     0.068 A 
ATOM     15  C   UNL d   1       2.663   0.043  -1.262  0.00  0.00     0.033 A 
ATOM     16  C   UNL d   1       1.916  -1.024  -0.779  0.00  0.00     0.032 A 
ATOM     17  C   UNL d   1       0.770  -0.757  -0.022  0.00  0.00     0.035 A 
BRANCH  13  18
ATOM     18  O   UNL d   1       0.823   2.948  -0.024  0.00  0.00    -0.354 OA
ATOM     19  C   UNL d   1       1.619   4.032  -0.452  0.00  0.00     0.210 C 
ENDBRANCH  13  18
BRANCH  15  20
ATOM     20  N   UNL d   1       3.854  -0.143  -2.029  0.00  0.00    -0.380 N 
ATOM     21  C   UNL d   1       3.954   0.234  -3.426  0.00  0.00     0.128 C 
ATOM     22  C   UNL d   1       5.328   0.817  -3.634  0.00  0.00     0.072 C 
ATOM     23  C   UNL d   1       6.005   1.287  -2.410  0.00  0.00    -0.013 C 
ATOM     24  C   UNL d   1       6.010   0.391  -1.240  0.00  0.00     0.072 C 
ATOM     25  C   UNL d   1       5.002  -0.733  -1.310  0.00  0.00     0.128 C 
BRANCH  23  26
ATOM     26  N   UNL d   1       6.181   2.667  -2.220  0.00  0.00    -0.384 N 
ATOM     27  C   UNL d   1       5.054   3.514  -2.410  0.00  0.00     0.152 C 
ATOM     28  C   UNL d   1       4.927   4.054  -3.819  0.00  0.00     0.291 C 
ATOM     29  N   UNL d   1       6.151   3.677  -4.533  0.00  0.00     0.087 N 
ATOM     30  C   UNL d   1       6.167   4.363  -5.791  0.00  0.00     0.310 C 
ATOM     31  C   UNL d   1       7.257   4.194  -3.710  0.00  0.00     0.291 C 
ATOM     32  C   UNL d   1       7.450   3.176  -2.605  0.00  0.00     0.152 C 
ENDBRANCH  23  26
ENDBRANCH  15  20
ENDBRANCH  10  12
ENDBRANCH   1  10
BRANCH   7  33
ATOM     33  N   UNL d   1      -3.808  -0.306   4.537  0.00  0.00    -0.339 N 
ATOM     34  HN  UNL d   1      -4.164  -1.100   5.069  1.00  0.00     0.167 HD
BRANCH  33  35
ATOM     35  C   UNL d   1      -4.376   0.933   4.891  0.00  0.00     0.055 A 
ATOM     36  C   UNL d   1      -4.736   1.721   3.774  0.00  0.00     0.031 A 
ATOM     37  C   UNL d   1      -5.295   2.931   3.979  0.00  0.00     0.002 A 
ATOM     38  C   UNL d   1      -5.501   3.368   5.258  0.00  0.00     0.002 A 
ATOM     39  C   UNL d   1      -5.162   2.621   6.340  0.00  0.00     0.026 A 
ATOM     40  C   UNL d   1      -4.587   1.371   6.174  0.00  0.00     0.086 A 
BRANCH  40  41
ATOM     41  S   UNL d   1      -4.292   0.447   7.610  0.00  0.00     0.181 S 
ATOM     42  O   UNL d   1      -5.168   1.005   8.732  0.00  0.00    -0.222 OA
ATOM     43  O   UNL d   1      -2.871   0.521   8.003  0.00  0.00    -0.222 OA
BRANCH  41  44
ATOM     44  C   UNL d   1      -4.746  -1.240   7.346  0.00  0.00     0.105 C 
ATOM     45  C   UNL d   1      -3.870  -1.842   6.291  0.00  0.00     0.026 C 
ATOM     46  C   UNL d   1      -4.629  -2.033   8.635  0.00  0.00     0.026 C 
ENDBRANCH  41  44
ENDBRANCH  40  41
ENDBRANCH  33  35
ENDBRANCH   7  33
TORSDOF 9
