REMARK  9 active torsions:
REMARK  status: ('A' for Active; 'I' for Inactive)
REMARK    1  A    between atoms: O_2  and  C_3 
REMARK    2  A    between atoms: C_4  and  O_5 
REMARK    3  A    between atoms: O_5  and  C_6 
REMARK    4  A    between atoms: C_6  and  C_7 
REMARK    5  A    between atoms: C_7  and  C_8 
REMARK    6  A    between atoms: C_8  and  N_9 
REMARK    7  A    between atoms: N_19  and  C_20 
REMARK    8  A    between atoms: C_20  and  C_21 
REMARK    9  A    between atoms: C_21  and  C_23 
ROOT
ATOM      1  C   UNL d   1       0.632  -2.447  -0.355  0.00  0.00     0.103 A 
ATOM      2  C   UNL d   1       1.483  -1.432   0.019  0.00  0.00     0.103 A 
ATOM      3  C   UNL d   1       1.052  -0.272   0.642  0.00  0.00     0.054 A 
ATOM      4  C   UNL d   1      -0.293  -0.142   0.892  0.00  0.00     0.012 A 
ATOM      5  C   UNL d   1      -1.069   0.833   1.474  0.00  0.00     0.121 A 
ATOM      6  N   UNL d   1      -2.358   0.455   1.470  0.00  0.00    -0.308 N 
ATOM      7  HN  UNL d   1      -3.148   0.985   1.837  1.00  0.00     0.186 HD
ATOM      8  N   UNL d   1      -2.404  -0.734   0.900  0.00  0.00    -0.290 N 
ATOM      9  C   UNL d   1      -1.176  -1.143   0.530  0.00  0.00     0.065 A 
ATOM     10  C   UNL d   1      -0.737  -2.312  -0.098  0.00  0.00     0.071 A 
ENDROOT
BRANCH   2  11
ATOM     11  O   UNL d   1       2.857  -1.521  -0.216  0.00  0.00    -0.348 OA
BRANCH  11  12
ATOM     12  C   UNL d   1       3.692  -0.390  -0.031  0.00  0.00     0.177 C 
BRANCH  12  13
ATOM     13  C   UNL d   1       4.204  -0.329   1.399  0.00  0.00     0.057 C 
BRANCH  13  14
ATOM     14  C   UNL d   1       5.042   0.890   1.631  0.00  0.00     0.274 C 
BRANCH  14  15
ATOM     15  N   UNL d   1       6.163   0.899   0.678  0.00  0.00     0.088 N 
ATOM     16  C   UNL d   1       6.864   2.168   0.932  0.00  0.00     0.272 C 
ATOM     17  C   UNL d   1       5.846   3.239   0.588  0.00  0.00     0.032 C 
ATOM     18  C   UNL d   1       4.942   2.502  -0.405  0.00  0.00     0.032 C 
ATOM     19  C   UNL d   1       5.665   1.177  -0.668  0.00  0.00     0.272 C 
ENDBRANCH  14  15
ENDBRANCH  13  14
ENDBRANCH  12  13
ENDBRANCH  11  12
ENDBRANCH   2  11
BRANCH   1  20
ATOM     20  O   UNL d   1       1.141  -3.580  -0.976  0.00  0.00    -0.353 OA
ATOM     21  C   UNL d   1       0.275  -4.626  -1.392  0.00  0.00     0.210 C 
ENDBRANCH   1  20
BRANCH   8  22
ATOM     22  C   UNL d   1      -3.667  -1.454   0.728  0.00  0.00     0.174 C 
BRANCH  22  23
ATOM     23  C   UNL d   1      -3.622  -2.809   1.442  0.00  0.00     0.135 C 
ATOM     24 CL   UNL d   1      -3.410  -2.570   3.187  0.00  0.00    -0.118 Cl
BRANCH  23  25
ATOM     25  C   UNL d   1      -2.545  -3.658   0.888  0.00  0.00    -0.038 A 
ATOM     26  C   UNL d   1      -2.615  -4.110  -0.413  0.00  0.00     0.009 A 
ATOM     27  C   UNL d   1      -1.661  -4.903  -1.011  0.00  0.00     0.001 A 
ATOM     28  C   UNL d   1      -0.560  -5.275  -0.271  0.00  0.00     0.000 A 
ATOM     29  C   UNL d   1      -0.471  -4.833   1.032  0.00  0.00     0.001 A 
ATOM     30  C   UNL d   1      -1.432  -4.040   1.622  0.00  0.00     0.009 A 
ENDBRANCH  23  25
ENDBRANCH  22  23
ENDBRANCH   8  22
TORSDOF 9
