REMARK  9 active torsions:
REMARK  status: ('A' for Active; 'I' for Inactive)
REMARK    1  A    between atoms: O_2  and  C_3 
REMARK    2  A    between atoms: C_4  and  O_5 
REMARK    3  A    between atoms: O_5  and  C_6 
REMARK    4  A    between atoms: C_6  and  C_7 
REMARK    5  A    between atoms: C_10  and  C_11 
REMARK    6  A    between atoms: C_11  and  S_12 
REMARK    7  A    between atoms: S_12  and  C_15 
REMARK    8  A    between atoms: C_32  and  N_33 
REMARK    9  A    between atoms: N_33  and  C_35 
ROOT
ATOM      1  C   UNL d   1      -1.276  -2.039  -0.292  0.00  0.00     0.102 A 
ATOM      2  C   UNL d   1      -0.198  -1.262   0.064  0.00  0.00     0.104 A 
ATOM      3  C   UNL d   1      -0.323   0.130   0.185  0.00  0.00     0.070 A 
ATOM      4  C   UNL d   1      -1.588   0.663  -0.076  0.00  0.00     0.050 A 
ATOM      5  N   UNL d   1      -1.709   1.985   0.030  0.00  0.00    -0.351 N 
ATOM      6  HN  UNL d   1      -0.897   2.542   0.295  1.00  0.00     0.166 HD
ATOM      7  C   UNL d   1      -2.900   2.606  -0.211  0.00  0.00     0.182 A 
ATOM      8  N   UNL d   1      -3.975   1.841  -0.564  0.00  0.00    -0.338 N 
ATOM      9  HN  UNL d   1      -4.874   2.285  -0.749  1.00  0.00     0.168 HD
ATOM     10  C   UNL d   1      -3.853   0.511  -0.670  0.00  0.00     0.119 A 
ATOM     11  C   UNL d   1      -2.662  -0.136  -0.433  0.00  0.00     0.038 A 
ATOM     12  C   UNL d   1      -2.532  -1.523  -0.552  0.00  0.00     0.057 A 
ENDROOT
BRANCH   2  13
ATOM     13  O   UNL d   1       1.050  -1.822   0.318  0.00  0.00    -0.340 OA
BRANCH  13  14
ATOM     14  C   UNL d   1       2.200  -1.095   0.579  0.00  0.00     0.262 C 
BRANCH  14  15
ATOM     15  C   UNL d   1       3.439  -1.852   0.758  0.00  0.00     0.172 A 
ATOM     16  N   UNL d   1       4.534  -1.897  -0.061  0.00  0.00    -0.324 N 
ATOM     17  C   UNL d   1       5.407  -2.748   0.559  0.00  0.00     0.118 A 
ATOM     18  HN  UNL d   1       4.670  -1.404  -0.943  1.00  0.00     0.169 HD
ATOM     19  N   UNL d   1       4.840  -3.189   1.711  0.00  0.00    -0.246 N 
ATOM     20  O   UNL d   1       3.685  -2.633   1.780  0.00  0.00    -0.221 OA
ATOM     21  HN  UNL d   1       5.249  -3.834   2.386  1.00  0.00     0.196 HD
BRANCH  17  22
ATOM     22  C   UNL d   1       6.758  -3.165   0.108  0.00  0.00     0.225 C 
BRANCH  22  23
ATOM     23  S   UNL d   1       6.551  -4.385  -1.202  0.00  0.00     0.197 S 
ATOM     24  O   UNL d   1       7.902  -5.054  -1.328  0.00  0.00    -0.221 OA
ATOM     25  O   UNL d   1       5.540  -5.414  -0.828  0.00  0.00    -0.221 OA
BRANCH  23  26
ATOM     26  C   UNL d   1       6.151  -3.506  -2.633  0.00  0.00     0.128 A 
ATOM     27  N   UNL d   1       7.061  -2.752  -3.260  0.00  0.00    -0.357 N 
ATOM     28  C   UNL d   1       6.801  -2.044  -4.383  0.00  0.00     0.089 A 
ATOM     29  HN  UNL d   1       8.003  -2.708  -2.871  1.00  0.00     0.166 HD
ATOM     30  C   UNL d   1       5.534  -2.100  -4.913  0.00  0.00     0.017 A 
ATOM     31  C   UNL d   1       4.557  -2.850  -4.322  0.00  0.00     0.004 A 
ATOM     32  C   UNL d   1       4.879  -3.552  -3.177  0.00  0.00     0.042 A 
ENDBRANCH  23  26
ENDBRANCH  22  23
ENDBRANCH  17  22
ENDBRANCH  14  15
ENDBRANCH  13  14
ENDBRANCH   2  13
BRANCH   1  33
ATOM     33  O   UNL d   1      -1.134  -3.431  -0.411  0.00  0.00    -0.353 OA
ATOM     34  C   UNL d   1      -2.135  -4.239  -0.974  0.00  0.00     0.210 C 
ENDBRANCH   1  33
BRANCH  10  35
ATOM     35  N   UNL d   1      -5.029  -0.228  -1.039  0.00  0.00    -0.342 N 
ATOM     36  HN  UNL d   1      -5.075  -1.247  -1.031  1.00  0.00     0.167 HD
BRANCH  35  37
ATOM     37  C   UNL d   1      -6.143   0.615  -1.422  0.00  0.00     0.035 A 
ATOM     38  C   UNL d   1      -7.416   0.108  -1.173  0.00  0.00     0.055 A 
ATOM     39  C   UNL d   1      -8.524   0.898  -1.516  0.00  0.00     0.058 A 
ATOM     40 CL   UNL d   1     -10.125   0.245  -1.195  0.00  0.00    -0.082 Cl
ATOM     41  C   UNL d   1      -8.338   2.133  -2.079  0.00  0.00     0.055 A 
ATOM     42 CL   UNL d   1      -9.778   3.058  -2.476  0.00  0.00    -0.083 Cl
ATOM     43  C   UNL d   1      -7.059   2.657  -2.337  0.00  0.00     0.028 A 
ATOM     44  C   UNL d   1      -5.969   1.841  -1.982  0.00  0.00     0.031 A 
ENDBRANCH  35  37
ENDBRANCH  10  35
TORSDOF 9
