REMARK  6 active torsions:
REMARK  status: ('A' for Active; 'I' for Inactive)
REMARK    1  A    between atoms: O_2  and  C_3 
REMARK    2  A    between atoms: C_4  and  O_5 
REMARK    3  A    between atoms: O_5  and  C_6 
REMARK    4  A    between atoms: C_6  and  C_7 
REMARK    5  A    between atoms: C_24  and  N_25 
REMARK    6  A    between atoms: N_25  and  C_27 
ROOT
ATOM      1  C   UNL d   1       4.759   0.950   0.256  0.00  0.00     0.194 C 
ATOM      2  C   UNL d   1       5.320  -0.468   0.370  0.00  0.00     0.161 C 
ATOM      3  N   UNL d   1       5.904  -0.792  -0.916  0.00  0.00    -0.359 N 
ATOM      4  C   UNL d   1       5.866  -2.169  -1.345  0.00  0.00     0.152 C 
ATOM      5  C   UNL d   1       6.508   0.205  -1.757  0.00  0.00     0.206 C 
ATOM      6  C   UNL d   1       7.115  -0.185  -3.001  0.00  0.00     0.138 C 
ATOM      7  N   UNL d   1       7.610  -0.523  -4.014  0.00  0.00    -0.188 NA
ATOM      8  N   UNL d   1       6.488   1.453  -1.362  0.00  0.00    -0.241 N 
ATOM      9  HN  UNL d   1       6.907   2.189  -1.932  1.00  0.00     0.196 HD
ATOM     10  O   UNL d   1       5.881   1.752  -0.143  0.00  0.00    -0.269 OA
ENDROOT
BRANCH   1  11
ATOM     11  C   UNL d   1       3.841   0.929  -0.947  0.00  0.00     0.211 C 
BRANCH  11  12
ATOM     12  O   UNL d   1       2.978  -0.189  -0.951  0.00  0.00    -0.346 OA
BRANCH  12  13
ATOM     13  C   UNL d   1       1.625  -0.041  -0.685  0.00  0.00     0.104 A 
ATOM     14  C   UNL d   1       0.750  -0.891  -1.359  0.00  0.00     0.102 A 
ATOM     15  C   UNL d   1      -0.603  -0.762  -1.109  0.00  0.00     0.057 A 
ATOM     16  C   UNL d   1      -1.096   0.176  -0.221  0.00  0.00     0.038 A 
ATOM     17  C   UNL d   1      -2.452   0.297   0.022  0.00  0.00     0.119 A 
ATOM     18  C   UNL d   1      -0.229   1.021   0.449  0.00  0.00     0.050 A 
ATOM     19  N   UNL d   1      -2.895   1.220   0.892  0.00  0.00    -0.338 N 
ATOM     20  C   UNL d   1      -2.063   2.042   1.545  0.00  0.00     0.182 A 
ATOM     21  HN  UNL d   1      -3.898   1.297   1.060  1.00  0.00     0.168 HD
ATOM     22  N   UNL d   1      -0.746   1.913   1.299  0.00  0.00    -0.351 N 
ATOM     23  HN  UNL d   1      -0.104   2.534   1.791  1.00  0.00     0.166 HD
ATOM     24  C   UNL d   1       1.114   0.883   0.193  0.00  0.00     0.070 A 
BRANCH  14  25
ATOM     25  O   UNL d   1       1.241  -1.835  -2.252  0.00  0.00    -0.353 OA
ATOM     26  C   UNL d   1       0.317  -2.634  -2.961  0.00  0.00     0.210 C 
ENDBRANCH  14  25
BRANCH  17  27
ATOM     27  N   UNL d   1      -3.317  -0.587  -0.684  0.00  0.00    -0.342 N 
ATOM     28  HN  UNL d   1      -2.960  -1.411  -1.168  1.00  0.00     0.167 HD
BRANCH  27  29
ATOM     29  C   UNL d   1      -4.712  -0.263  -0.682  0.00  0.00     0.035 A 
ATOM     30  C   UNL d   1      -5.649  -1.285  -0.823  0.00  0.00     0.055 A 
ATOM     31  C   UNL d   1      -7.007  -1.005  -0.825  0.00  0.00     0.058 A 
ATOM     32 CL   UNL d   1      -8.195  -2.262  -1.001  0.00  0.00    -0.082 Cl
ATOM     33  C   UNL d   1      -7.409   0.310  -0.683  0.00  0.00     0.055 A 
ATOM     34 CL   UNL d   1      -9.109   0.712  -0.680  0.00  0.00    -0.083 Cl
ATOM     35  C   UNL d   1      -6.495   1.350  -0.540  0.00  0.00     0.028 A 
ATOM     36  C   UNL d   1      -5.132   1.059  -0.539  0.00  0.00     0.031 A 
ENDBRANCH  27  29
ENDBRANCH  17  27
ENDBRANCH  12  13
ENDBRANCH  11  12
ENDBRANCH   1  11
TORSDOF 6
