REMARK  6 active torsions:
REMARK  status: ('A' for Active; 'I' for Inactive)
REMARK    1  A    between atoms: O_2  and  C_3 
REMARK    2  A    between atoms: C_8  and  O_9 
REMARK    3  A    between atoms: O_9  and  C_10 
REMARK    4  A    between atoms: C_10  and  C_11 
REMARK    5  A    between atoms: C_26  and  N_27 
REMARK    6  A    between atoms: N_27  and  C_29 
ROOT
ATOM      1  C   UNL d   1       0.520  -1.418  -0.296  0.00  0.00     0.102 A 
ATOM      2  C   UNL d   1      -0.851  -1.249  -0.360  0.00  0.00     0.057 A 
ATOM      3  C   UNL d   1      -1.449  -0.148   0.239  0.00  0.00     0.038 A 
ATOM      4  C   UNL d   1      -0.725   0.813   0.913  0.00  0.00     0.050 A 
ATOM      5  C   UNL d   1       0.648   0.631   0.970  0.00  0.00     0.070 A 
ATOM      6  C   UNL d   1       1.258  -0.464   0.375  0.00  0.00     0.104 A 
ATOM      7  N   UNL d   1      -1.337   1.868   1.483  0.00  0.00    -0.351 N 
ATOM      8  HN  UNL d   1      -0.775   2.562   1.975  1.00  0.00     0.166 HD
ATOM      9  C   UNL d   1      -2.679   2.032   1.419  0.00  0.00     0.182 A 
ATOM     10  N   UNL d   1      -3.400   1.104   0.766  0.00  0.00    -0.338 N 
ATOM     11  HN  UNL d   1      -4.412   1.218   0.712  1.00  0.00     0.168 HD
ATOM     12  C   UNL d   1      -2.836   0.030   0.179  0.00  0.00     0.119 A 
ENDROOT
BRANCH   6  13
ATOM     13  O   UNL d   1       2.654  -0.632   0.443  0.00  0.00    -0.346 OA
BRANCH  13  14
ATOM     14  C   UNL d   1       3.486   0.237   1.143  0.00  0.00     0.209 C 
BRANCH  14  15
ATOM     15  C   UNL d   1       3.769   1.500   0.359  0.00  0.00     0.174 C 
ATOM     16  C   UNL d   1       4.259   2.582   1.294  0.00  0.00     0.307 C 
ATOM     17  N   UNL d   1       3.561   3.815   1.097  0.00  0.00     0.102 N 
ATOM     18  C   UNL d   1       4.061   4.626   0.015  0.00  0.00     0.299 C 
ATOM     19  C   UNL d   1       2.131   3.716   1.121  0.00  0.00     0.270 C 
ATOM     20  C   UNL d   1       3.296   4.440  -1.271  0.00  0.00     0.198 C 
ATOM     21  O   UNL d   1       1.926   4.405  -1.101  0.00  0.00    -0.387 OA
ATOM     22  C   UNL d   1       1.575   4.790   0.180  0.00  0.00     0.205 C 
ATOM     23  C   UNL d   1       1.697   2.391   0.536  0.00  0.00     0.206 C 
ATOM     24  O   UNL d   1       2.647   1.912  -0.365  0.00  0.00    -0.380 OA
ENDBRANCH  14  15
ENDBRANCH  13  14
ENDBRANCH   6  13
BRANCH   1  25
ATOM     25  O   UNL d   1       1.121  -2.516  -0.893  0.00  0.00    -0.353 OA
ATOM     26  C   UNL d   1       0.288  -3.365  -1.677  0.00  0.00     0.210 C 
ENDBRANCH   1  25
BRANCH  12  27
ATOM     27  N   UNL d   1      -3.649  -0.936  -0.510  0.00  0.00    -0.339 N 
ATOM     28  HN  UNL d   1      -4.446  -0.626  -1.066  1.00  0.00     0.167 HD
BRANCH  27  29
ATOM     29  C   UNL d   1      -3.344  -2.324  -0.417  0.00  0.00     0.074 A 
ATOM     30  C   UNL d   1      -3.649  -3.209  -1.446  0.00  0.00     0.058 A 
ATOM     31  C   UNL d   1      -3.347  -4.568  -1.347  0.00  0.00     0.053 A 
ATOM     32 CL   UNL d   1      -3.750  -5.650  -2.671  0.00  0.00    -0.083 Cl
ATOM     33  C   UNL d   1      -2.734  -5.010  -0.194  0.00  0.00     0.035 A 
ATOM     34 BR   UNL d   1      -2.312  -6.876  -0.045  0.00  0.00    -0.049 Br
ATOM     35  C   UNL d   1      -2.431  -4.118   0.832  0.00  0.00     0.065 A 
ATOM     36  C   UNL d   1      -2.732  -2.765   0.735  0.00  0.00     0.144 A 
ATOM     37  F   UNL d   1      -2.420  -1.941   1.754  0.00  0.00    -0.204 F 
ENDBRANCH  27  29
ENDBRANCH  12  27
TORSDOF 6
