REMARK  9 active torsions:
REMARK  status: ('A' for Active; 'I' for Inactive)
REMARK    1  A    between atoms: O_2  and  C_3 
REMARK    2  A    between atoms: C_4  and  N_5 
REMARK    3  A    between atoms: N_5  and  C_7 
REMARK    4  A    between atoms: C_10  and  C_11 
REMARK    5  A    between atoms: C_12  and  C_13 
REMARK    6  A    between atoms: C_15  and  C_16 
REMARK       I    between atoms: C_16  and  N_18 
REMARK    7  A    between atoms: N_18  and  C_20 
REMARK    8  A    between atoms: C_45  and  N_46 
REMARK    9  A    between atoms: C_49  and  N_50 
ROOT
ATOM      1  C   UNL d   1       0.086  -1.105   1.097  0.00  0.00     0.683 A 
ATOM      2  N   UNL d   1      -1.164  -1.343   1.562  0.00  0.00    -0.189 N 
ATOM      3  HN  UNL d   1      -1.391  -1.107   2.528  1.00  0.00     0.184 HD
ATOM      4  C   UNL d   1      -2.115  -1.887   0.773  0.00  0.00     0.080 A 
ATOM      5  C   UNL d   1      -1.750  -2.185  -0.525  0.00  0.00     0.050 A 
ATOM      6  C   UNL d   1      -0.470  -1.939  -0.993  0.00  0.00     0.108 A 
ATOM      7  N   UNL d   1       0.435  -1.402  -0.181  0.00  0.00    -0.202 N 
ATOM      8  HN  UNL d   1       1.381  -1.216  -0.514  1.00  0.00     0.183 HD
ENDROOT
BRANCH   4   9
ATOM      9  C   UNL d   1      -3.471  -2.161   1.233  0.00  0.00     0.095 A 
ATOM     10  C   UNL d   1      -4.175  -3.313   0.871  0.00  0.00     0.074 A 
ATOM     11  N   UNL d   1      -5.382  -3.226   1.480  0.00  0.00    -0.339 N 
ATOM     12  C   UNL d   1      -5.432  -2.072   2.192  0.00  0.00     0.112 A 
ATOM     13  HN  UNL d   1      -6.131  -3.916   1.415  1.00  0.00     0.167 HD
ATOM     14  C   UNL d   1      -6.377  -1.463   2.993  0.00  0.00     0.049 A 
ATOM     15  N   UNL d   1      -4.265  -1.426   2.038  0.00  0.00    -0.304 N 
ATOM     16  C   UNL d   1      -6.157  -0.253   3.613  0.00  0.00     0.005 A 
ATOM     17  C   UNL d   1      -4.946   0.373   3.427  0.00  0.00     0.018 A 
ATOM     18  C   UNL d   1      -4.013  -0.246   2.627  0.00  0.00     0.099 A 
BRANCH  10  19
ATOM     19  C   UNL d   1      -3.662  -4.366   0.002  0.00  0.00    -0.006 A 
ATOM     20  C   UNL d   1      -4.449  -4.996  -0.908  0.00  0.00     0.030 A 
ATOM     21  C   UNL d   1      -3.961  -5.979  -1.715  0.00  0.00     0.033 A 
ATOM     22  C   UNL d   1      -2.633  -6.338  -1.601  0.00  0.00     0.017 A 
ATOM     23  C   UNL d   1      -1.809  -5.710  -0.680  0.00  0.00     0.002 A 
ATOM     24  C   UNL d   1      -2.333  -4.719   0.124  0.00  0.00     0.014 A 
BRANCH  21  25
ATOM     25  C   UNL d   1      -4.829  -6.662  -2.701  0.00  0.00     0.256 C 
ATOM     26  O   UNL d   1      -4.280  -7.299  -3.637  0.00  0.00    -0.267 OA
ATOM     27  N   UNL d   1      -6.243  -6.571  -2.550  0.00  0.00    -0.318 N 
ATOM     28  HN  UNL d   1      -6.602  -6.010  -1.777  1.00  0.00     0.169 HD
BRANCH  27  29
ATOM     29  C   UNL d   1      -7.179  -7.202  -3.394  0.00  0.00     0.113 A 
ATOM     30  C   UNL d   1      -7.083  -6.894  -4.759  0.00  0.00     0.146 A 
ATOM     31  F   UNL d   1      -6.125  -6.029  -5.201  0.00  0.00    -0.204 F 
ATOM     32  C   UNL d   1      -7.971  -7.479  -5.650  0.00  0.00     0.045 A 
ATOM     33  C   UNL d   1      -8.929  -8.345  -5.206  0.00  0.00     0.006 A 
ATOM     34  C   UNL d   1      -9.015  -8.640  -3.863  0.00  0.00     0.045 A 
ATOM     35  C   UNL d   1      -8.152  -8.081  -2.946  0.00  0.00     0.146 A 
ATOM     36  F   UNL d   1      -8.196  -8.337  -1.628  0.00  0.00    -0.204 F 
ENDBRANCH  27  29
ENDBRANCH  21  25
ENDBRANCH  10  19
ENDBRANCH   4   9
BRANCH   1  37
ATOM     37  N   UNL d   1       1.109  -0.533   1.903  0.00  0.00    -0.189 N 
ATOM     38  HN  UNL d   1       0.864  -0.169   2.824  1.00  0.00     0.184 HD
BRANCH  37  39
ATOM     39  C   UNL d   1       2.462  -0.450   1.472  0.00  0.00     0.082 A 
ATOM     40  C   UNL d   1       3.498  -0.082   2.312  0.00  0.00     0.097 A 
ATOM     41  C   UNL d   1       4.766  -0.038   1.796  0.00  0.00     0.068 A 
ATOM     42  C   UNL d   1       5.009  -0.351   0.480  0.00  0.00     0.033 A 
ATOM     43  C   UNL d   1       3.997  -0.721  -0.379  0.00  0.00     0.032 A 
ATOM     44  C   UNL d   1       2.723  -0.764   0.145  0.00  0.00     0.035 A 
BRANCH  40  45
ATOM     45  O   UNL d   1       3.171   0.217   3.619  0.00  0.00    -0.354 OA
ATOM     46  C   UNL d   1       4.238   0.423   4.527  0.00  0.00     0.210 C 
ENDBRANCH  40  45
BRANCH  42  47
ATOM     47  N   UNL d   1       6.349  -0.293  -0.010  0.00  0.00    -0.381 N 
ATOM     48  C   UNL d   1       6.667  -0.235  -1.424  0.00  0.00     0.125 C 
ATOM     49  C   UNL d   1       8.140  -0.514  -1.587  0.00  0.00     0.055 C 
ATOM     50  C   UNL d   1       8.501  -1.722  -0.789  0.00  0.00     0.226 C 
ATOM     51  C   UNL d   1       8.235  -1.571   0.690  0.00  0.00     0.055 C 
ATOM     52  C   UNL d   1       7.469  -0.287   0.912  0.00  0.00     0.125 C 
BRANCH  50  53
ATOM     53  N   UNL d   1       7.940  -2.948  -1.292  0.00  0.00     0.093 N 
ATOM     54  C   UNL d   1       6.503  -2.890  -1.156  0.00  0.00     0.273 C 
ATOM     55  C   UNL d   1       5.941  -4.242  -1.535  0.00  0.00     0.030 C 
ATOM     56  C   UNL d   1       7.024  -5.272  -1.287  0.00  0.00     0.002 C 
ATOM     57  C   UNL d   1       7.731  -5.563  -2.588  0.00  0.00     0.002 C 
ATOM     58  C   UNL d   1       8.716  -4.512  -2.983  0.00  0.00     0.030 C 
ATOM     59  C   UNL d   1       8.262  -3.098  -2.679  0.00  0.00     0.273 C 
ENDBRANCH  50  53
ENDBRANCH  42  47
ENDBRANCH  37  39
ENDBRANCH   1  37
TORSDOF 9
