REMARK  8 active torsions:
REMARK  status: ('A' for Active; 'I' for Inactive)
REMARK    1  A    between atoms: O_2  and  C_3 
REMARK    2  A    between atoms: C_4  and  O_5 
REMARK    3  A    between atoms: O_5  and  C_6 
REMARK    4  A    between atoms: C_6  and  C_7 
REMARK    5  A    between atoms: N_9  and  C_10 
REMARK    6  A    between atoms: C_10  and  C_11 
REMARK    7  A    between atoms: C_30  and  N_31 
REMARK    8  A    between atoms: N_31  and  C_33 
ROOT
ATOM      1  C   UNL d   1       1.599  -2.539   0.677  0.00  0.00     0.102 A 
ATOM      2  C   UNL d   1       0.399  -1.948   0.989  0.00  0.00     0.104 A 
ATOM      3  C   UNL d   1       0.360  -0.562   0.978  0.00  0.00     0.070 A 
ATOM      4  C   UNL d   1       1.478   0.157   0.668  0.00  0.00     0.050 A 
ATOM      5  N   UNL d   1       1.438   1.488   0.658  0.00  0.00    -0.351 N 
ATOM      6  HN  UNL d   1       0.556   1.946   0.887  1.00  0.00     0.166 HD
ATOM      7  C   UNL d   1       2.499   2.260   0.363  0.00  0.00     0.182 A 
ATOM      8  N   UNL d   1       3.651   1.630   0.065  0.00  0.00    -0.338 N 
ATOM      9  HN  UNL d   1       4.466   2.200  -0.161  1.00  0.00     0.168 HD
ATOM     10  C   UNL d   1       3.789   0.294   0.049  0.00  0.00     0.119 A 
ATOM     11  C   UNL d   1       2.675  -0.459   0.358  0.00  0.00     0.038 A 
ATOM     12  C   UNL d   1       2.742  -1.831   0.361  0.00  0.00     0.057 A 
ENDROOT
BRANCH   2  13
ATOM     13  O   UNL d   1      -0.667  -2.749   1.286  0.00  0.00    -0.346 OA
BRANCH  13  14
ATOM     14  C   UNL d   1      -1.917  -2.345   1.765  0.00  0.00     0.202 C 
BRANCH  14  15
ATOM     15  C   UNL d   1      -2.791  -3.532   2.155  0.00  0.00     0.137 C 
ATOM     16  C   UNL d   1      -4.181  -2.990   2.343  0.00  0.00     0.300 C 
ATOM     17  N   UNL d   1      -5.115  -4.012   2.699  0.00  0.00     0.102 N 
ATOM     18  C   UNL d   1      -4.568  -5.166   3.337  0.00  0.00     0.375 C 
ATOM     19  C   UNL d   1      -3.335  -4.878   4.114  0.00  0.00     0.246 C 
ATOM     20  O   UNL d   1      -3.128  -5.359   5.271  0.00  0.00    -0.272 OA
ATOM     21  N   UNL d   1      -2.377  -4.015   3.481  0.00  0.00    -0.351 N 
ATOM     22  HN  UNL d   1      -1.489  -3.759   3.913  1.00  0.00     0.163 HD
BRANCH  17  23
ATOM     23  C   UNL d   1      -6.200  -3.441   3.481  0.00  0.00     0.300 C 
BRANCH  23  24
ATOM     24  C   UNL d   1      -7.241  -4.466   3.701  0.00  0.00     0.006 C 
ATOM     25  C   UNL d   1      -7.442  -5.128   4.828  0.00  0.00    -0.082 C 
ATOM     26  C   UNL d   1      -6.622  -4.840   6.037  0.00  0.00     0.034 C 
ATOM     27  C   UNL d   1      -8.522  -6.164   4.816  0.00  0.00     0.034 C 
ATOM     28  C   UNL d   1      -7.562  -4.610   7.198  0.00  0.00     0.004 C 
ATOM     29  C   UNL d   1      -8.983  -4.998   6.908  0.00  0.00     0.001 C 
ATOM     30  C   UNL d   1      -9.097  -6.331   6.207  0.00  0.00     0.004 C 
ENDBRANCH  23  24
ENDBRANCH  17  23
ENDBRANCH  14  15
ENDBRANCH  13  14
ENDBRANCH   2  13
BRANCH   1  31
ATOM     31  O   UNL d   1       1.691  -3.939   0.674  0.00  0.00    -0.353 OA
ATOM     32  C   UNL d   1       2.880  -4.616   0.406  0.00  0.00     0.210 C 
ENDBRANCH   1  31
BRANCH  10  33
ATOM     33  N   UNL d   1       5.010  -0.365  -0.267  0.00  0.00    -0.342 N 
ATOM     34  HN  UNL d   1       5.030  -1.364  -0.472  1.00  0.00     0.167 HD
BRANCH  33  35
ATOM     35  C   UNL d   1       6.203   0.412  -0.288  0.00  0.00     0.035 A 
ATOM     36  C   UNL d   1       7.294   0.055  -1.034  0.00  0.00     0.055 A 
ATOM     37  C   UNL d   1       8.471   0.791  -1.076  0.00  0.00     0.058 A 
ATOM     38 CL   UNL d   1       9.847   0.302  -2.042  0.00  0.00    -0.082 Cl
ATOM     39  C   UNL d   1       8.519   1.940  -0.316  0.00  0.00     0.055 A 
ATOM     40 CL   UNL d   1       9.966   2.932  -0.308  0.00  0.00    -0.083 Cl
ATOM     41  C   UNL d   1       7.446   2.353   0.459  0.00  0.00     0.028 A 
ATOM     42  C   UNL d   1       6.289   1.574   0.462  0.00  0.00     0.031 A 
ENDBRANCH  33  35
ENDBRANCH  10  33
TORSDOF 8
