REMARK  6 active torsions:
REMARK  status: ('A' for Active; 'I' for Inactive)
REMARK    1  A    between atoms: O_2  and  C_3 
REMARK    2  A    between atoms: C_4  and  O_5 
REMARK    3  A    between atoms: O_5  and  C_6 
REMARK    4  A    between atoms: C_6  and  C_7 
REMARK    5  A    between atoms: C_21  and  N_22 
REMARK    6  A    between atoms: N_22  and  C_24 
ROOT
ATOM      1  C   UNL d   1       1.202  -1.322   0.689  0.00  0.00     0.102 A 
ATOM      2  C   UNL d   1       2.119  -0.599  -0.064  0.00  0.00     0.104 A 
ATOM      3  C   UNL d   1       1.685   0.376  -0.936  0.00  0.00     0.070 A 
ATOM      4  C   UNL d   1       0.315   0.620  -1.046  0.00  0.00     0.050 A 
ATOM      5  N   UNL d   1      -0.164   1.559  -1.881  0.00  0.00    -0.351 N 
ATOM      6  HN  UNL d   1       0.488   2.105  -2.446  1.00  0.00     0.166 HD
ATOM      7  C   UNL d   1      -1.484   1.795  -1.988  0.00  0.00     0.182 A 
ATOM      8  N   UNL d   1      -2.373   1.097  -1.261  0.00  0.00    -0.338 N 
ATOM      9  HN  UNL d   1      -3.368   1.297  -1.363  1.00  0.00     0.168 HD
ATOM     10  C   UNL d   1      -1.980   0.147  -0.408  0.00  0.00     0.119 A 
ATOM     11  C   UNL d   1      -0.615  -0.086  -0.308  0.00  0.00     0.038 A 
ATOM     12  C   UNL d   1      -0.144  -1.050   0.551  0.00  0.00     0.057 A 
ENDROOT
BRANCH  10  13
ATOM     13  N   UNL d   1      -2.831  -0.631   0.390  0.00  0.00    -0.337 N 
ATOM     14  HN  UNL d   1      -2.457  -1.422   0.915  1.00  0.00     0.167 HD
BRANCH  13  15
ATOM     15  C   UNL d   1      -4.197  -0.322   0.468  0.00  0.00     0.112 A 
ATOM     16  C   UNL d   1      -5.201  -1.280   0.330  0.00  0.00     0.147 A 
ATOM     17  F   UNL d   1      -4.848  -2.574   0.110  0.00  0.00    -0.204 F 
ATOM     18  C   UNL d   1      -6.541  -0.894   0.419  0.00  0.00     0.064 A 
ATOM     19  C   UNL d   1      -6.889   0.441   0.645  0.00  0.00     0.017 A 
ATOM     20 BR   UNL d   1      -8.740   0.956   0.766  0.00  0.00    -0.051 Br
ATOM     21  C   UNL d   1      -5.882   1.397   0.783  0.00  0.00     0.064 A 
ATOM     22  C   UNL d   1      -4.544   1.013   0.694  0.00  0.00     0.147 A 
ATOM     23  F   UNL d   1      -3.551   1.947   0.828  0.00  0.00    -0.204 F 
ENDBRANCH  13  15
ENDBRANCH  10  13
BRANCH   1  24
ATOM     24  O   UNL d   1       1.601  -2.302   1.569  0.00  0.00    -0.353 OA
ATOM     25  C   UNL d   1       0.613  -2.941   2.354  0.00  0.00     0.210 C 
ENDBRANCH   1  24
BRANCH   2  26
ATOM     26  O   UNL d   1       3.455  -0.922   0.123  0.00  0.00    -0.346 OA
BRANCH  26  27
ATOM     27  C   UNL d   1       4.463  -0.216  -0.538  0.00  0.00     0.209 C 
BRANCH  27  28
ATOM     28  C   UNL d   1       5.851  -0.710  -0.151  0.00  0.00     0.174 C 
ATOM     29  C   UNL d   1       5.945  -0.629   1.359  0.00  0.00     0.305 C 
ATOM     30  N   UNL d   1       4.632  -0.971   1.873  0.00  0.00     0.088 N 
ATOM     31  C   UNL d   1       4.662  -1.209   3.302  0.00  0.00     0.310 C 
ATOM     32  C   UNL d   1       4.160  -2.113   1.131  0.00  0.00     0.298 C 
ATOM     33  C   UNL d   1       5.259  -2.856   0.437  0.00  0.00     0.198 C 
ATOM     34  O   UNL d   1       5.933  -2.074  -0.497  0.00  0.00    -0.380 OA
ENDBRANCH  27  28
ENDBRANCH  26  27
ENDBRANCH   2  26
TORSDOF 6
