REMARK  7 active torsions:
REMARK  status: ('A' for Active; 'I' for Inactive)
REMARK    1  A    between atoms: C_2  and  C_3 
REMARK       I    between atoms: C_3  and  N_5 
REMARK    2  A    between atoms: N_5  and  C_7 
REMARK    3  A    between atoms: C_9  and  N_10 
REMARK    4  A    between atoms: N_10  and  C_12 
REMARK    5  A    between atoms: C_18  and  C_19 
REMARK    6  A    between atoms: C_31  and  O_32 
REMARK    7  A    between atoms: C_35  and  N_36 
ROOT
ATOM      1  C   UNL d   1       2.878   1.542   1.854  0.00  0.00     0.064 A 
ATOM      2  C   UNL d   1       2.785   1.673   0.491  0.00  0.00     0.065 A 
ATOM      3  C   UNL d   1       2.443   2.837  -0.165  0.00  0.00     0.084 A 
ATOM      4  C   UNL d   1       2.174   3.954   0.602  0.00  0.00     0.097 A 
ATOM      5  C   UNL d   1       2.254   3.872   1.980  0.00  0.00     0.070 A 
ATOM      6  C   UNL d   1       2.600   2.687   2.603  0.00  0.00     0.060 A 
ENDROOT
BRANCH   3   7
ATOM      7  N   UNL d   1       2.384   2.803  -1.571  0.00  0.00    -0.189 N 
ATOM      8  HN  UNL d   1       2.219   3.683  -2.058  1.00  0.00     0.184 HD
BRANCH   7   9
ATOM      9  C   UNL d   1       2.537   1.632  -2.362  0.00  0.00     0.683 A 
ATOM     10  N   UNL d   1       2.748   0.416  -1.815  0.00  0.00    -0.200 N 
ATOM     11  C   UNL d   1       2.891  -0.704  -2.584  0.00  0.00     0.132 A 
ATOM     12  HN  UNL d   1       2.801   0.331  -0.799  1.00  0.00     0.183 HD
ATOM     13  C   UNL d   1       2.814  -0.557  -3.970  0.00  0.00     0.078 A 
ATOM     14 CL   UNL d   1       2.986  -1.943  -5.036  0.00  0.00    -0.080 Cl
ATOM     15  C   UNL d   1       2.599   0.683  -4.531  0.00  0.00     0.086 A 
ATOM     16  N   UNL d   1       2.467   1.741  -3.717  0.00  0.00    -0.189 N 
ATOM     17  HN  UNL d   1       2.308   2.661  -4.128  1.00  0.00     0.184 HD
BRANCH  15  18
ATOM     18  C   UNL d   1       2.516   0.819  -5.981  0.00  0.00     0.038 A 
ATOM     19  C   UNL d   1       3.069   1.807  -6.759  0.00  0.00     0.069 A 
ATOM     20  C   UNL d   1       3.825   2.907  -6.412  0.00  0.00     0.032 A 
ATOM     21  N   UNL d   1       2.726   1.505  -8.022  0.00  0.00    -0.267 N 
ATOM     22  C   UNL d   1       4.244   3.735  -7.444  0.00  0.00     0.004 A 
ATOM     23  C   UNL d   1       3.906   3.450  -8.751  0.00  0.00     0.019 A 
ATOM     24  C   UNL d   1       3.140   2.322  -9.028  0.00  0.00     0.116 A 
ATOM     25  N   UNL d   1       2.007   0.415  -8.086  0.00  0.00    -0.304 N 
ATOM     26  C   UNL d   1       1.858  -0.038  -6.839  0.00  0.00     0.123 A 
ATOM     27  HN  UNL d   1       1.631  -0.012  -8.933  1.00  0.00     0.186 HD
ENDBRANCH  15  18
ENDBRANCH   7   9
ENDBRANCH   3   7
BRANCH   4  28
ATOM     28  O   UNL d   1       1.831   5.122  -0.064  0.00  0.00    -0.354 OA
ATOM     29  C   UNL d   1       1.573   6.301   0.710  0.00  0.00     0.210 C 
ENDBRANCH   4  28
BRANCH   1  30
ATOM     30  N   UNL d   1       3.231   0.323   2.505  0.00  0.00    -0.322 N 
ATOM     31  C   UNL d   1       3.367  -0.859   1.690  0.00  0.00     0.244 C 
ATOM     32  O   UNL d   1       3.123  -0.852   0.460  0.00  0.00    -0.268 OA
ATOM     33  HN  UNL d   1       3.382   0.289   3.513  1.00  0.00     0.169 HD
BRANCH  31  34
ATOM     34  C   UNL d   1       3.811  -2.061   2.410  0.00  0.00     0.064 C 
ATOM     35  C   UNL d   1       4.564  -1.934   3.515  0.00  0.00     0.017 C 
ENDBRANCH  31  34
ENDBRANCH   1  30
BRANCH   6  36
ATOM     36  N   UNL d   1       2.647   2.690   4.026  0.00  0.00    -0.376 N 
ATOM     37  C   UNL d   1       1.476   2.563   4.865  0.00  0.00     0.153 C 
ATOM     38  C   UNL d   1       1.523   3.577   6.010  0.00  0.00     0.291 C 
ATOM     39  N   UNL d   1       2.596   4.494   5.758  0.00  0.00     0.087 N 
ATOM     40  C   UNL d   1       2.599   5.672   6.574  0.00  0.00     0.310 C 
ATOM     41  C   UNL d   1       3.908   3.872   5.705  0.00  0.00     0.291 C 
ATOM     42  C   UNL d   1       3.986   2.832   4.616  0.00  0.00     0.153 C 
ENDBRANCH   6  36
TORSDOF 7
