REMARK  9 active torsions:
REMARK  status: ('A' for Active; 'I' for Inactive)
REMARK    1  A    between atoms: C_2  and  C_3 
REMARK       I    between atoms: C_3  and  N_5 
REMARK    2  A    between atoms: N_5  and  C_7 
REMARK    3  A    between atoms: C_8  and  O_9 
REMARK    4  A    between atoms: O_9  and  C_10 
REMARK    5  A    between atoms: C_10  and  C_11 
REMARK    6  A    between atoms: C_11  and  C_12 
REMARK    7  A    between atoms: C_12  and  N_13 
REMARK    8  A    between atoms: C_26  and  N_27 
REMARK    9  A    between atoms: N_27  and  C_29 
ROOT
ATOM      1  C   UNL d   1       0.718  -2.063   0.221  0.00  0.00     0.069 A 
ATOM      2  C   UNL d   1       1.755  -1.216  -0.106  0.00  0.00     0.097 A 
ATOM      3  C   UNL d   1       1.504   0.108  -0.378  0.00  0.00     0.069 A 
ATOM      4  C   UNL d   1       0.235   0.603  -0.331  0.00  0.00     0.049 A 
ATOM      5  N   UNL d   1       0.057   1.904  -0.608  0.00  0.00    -0.351 N 
ATOM      6  HN  UNL d   1       0.844   2.507  -0.847  1.00  0.00     0.166 HD
ATOM      7  C   UNL d   1      -1.197   2.383  -0.560  0.00  0.00     0.182 A 
ATOM      8  N   UNL d   1      -2.264   1.630  -0.251  0.00  0.00    -0.338 N 
ATOM      9  HN  UNL d   1      -3.200   2.035  -0.226  1.00  0.00     0.168 HD
ATOM     10  C   UNL d   1      -2.068   0.331   0.023  0.00  0.00     0.119 A 
ATOM     11  C   UNL d   1      -0.809  -0.251  -0.003  0.00  0.00     0.037 A 
ATOM     12  C   UNL d   1      -0.598  -1.585   0.278  0.00  0.00     0.050 A 
ENDROOT
BRANCH   2  13
ATOM     13  O   UNL d   1       3.087  -1.638  -0.179  0.00  0.00    -0.349 OA
BRANCH  13  14
ATOM     14  C   UNL d   1       4.117  -0.763  -0.613  0.00  0.00     0.177 C 
BRANCH  14  15
ATOM     15  C   UNL d   1       5.405  -1.529  -0.708  0.00  0.00     0.057 C 
BRANCH  15  16
ATOM     16  C   UNL d   1       5.833  -1.939   0.680  0.00  0.00     0.274 C 
BRANCH  16  17
ATOM     17  N   UNL d   1       7.110  -2.602   0.718  0.00  0.00     0.092 N 
ATOM     18  C   UNL d   1       7.078  -3.905   0.090  0.00  0.00     0.298 C 
ATOM     19  C   UNL d   1       8.414  -4.181  -0.612  0.00  0.00     0.198 C 
ATOM     20  O   UNL d   1       8.662  -3.275  -1.627  0.00  0.00    -0.388 OA
ATOM     21  C   UNL d   1       8.109  -2.013  -1.374  0.00  0.00     0.198 C 
ATOM     22  C   UNL d   1       8.141  -1.818   0.119  0.00  0.00     0.298 C 
ENDBRANCH  16  17
ENDBRANCH  15  16
ENDBRANCH  14  15
ENDBRANCH  13  14
ENDBRANCH   2  13
BRANCH   1  23
ATOM     23  N   UNL d   1       1.029  -3.426   0.496  0.00  0.00    -0.321 N 
ATOM     24  C   UNL d   1       0.070  -4.436   0.752  0.00  0.00     0.245 C 
ATOM     25  O   UNL d   1      -1.154  -4.139   0.730  0.00  0.00    -0.268 OA
ATOM     26  HN  UNL d   1       2.013  -3.694   0.509  1.00  0.00     0.169 HD
BRANCH  24  27
ATOM     27  C   UNL d   1       0.545  -5.786   1.033  0.00  0.00     0.064 C 
ATOM     28  C   UNL d   1      -0.309  -6.774   1.245  0.00  0.00     0.017 C 
ENDBRANCH  24  27
ENDBRANCH   1  23
BRANCH  10  29
ATOM     29  N   UNL d   1      -3.205  -0.463   0.347  0.00  0.00    -0.342 N 
ATOM     30  HN  UNL d   1      -3.143  -1.481   0.340  1.00  0.00     0.167 HD
BRANCH  29  31
ATOM     31  C   UNL d   1      -4.437   0.185   0.683  0.00  0.00     0.035 A 
ATOM     32  C   UNL d   1      -5.595  -0.549   0.444  0.00  0.00     0.056 A 
ATOM     33  C   UNL d   1      -6.817   0.025   0.750  0.00  0.00     0.074 A 
ATOM     34 CL   UNL d   1      -8.335  -0.840   0.476  0.00  0.00    -0.081 Cl
ATOM     35  C   UNL d   1      -6.856   1.308   1.283  0.00  0.00     0.138 A 
ATOM     36  F   UNL d   1      -8.070   1.835   1.569  0.00  0.00    -0.204 F 
ATOM     37  C   UNL d   1      -5.697   1.999   1.503  0.00  0.00     0.046 A 
ATOM     38  C   UNL d   1      -4.463   1.442   1.204  0.00  0.00     0.032 A 
ENDBRANCH  29  31
ENDBRANCH  10  29
TORSDOF 9
