MODEL 1
REMARK VINA RESULT:      -7.5      0.000      0.000
REMARK  6 active torsions:
REMARK  status: ('A' for Active; 'I' for Inactive)
REMARK    1  A    between atoms: N_2  and  C_4 
REMARK    2  A    between atoms: C_7  and  C_8 
REMARK    3  A    between atoms: C_11  and  N_12 
REMARK       I    between atoms: N_12  and  C_14 
REMARK       I    between atoms: C_14  and  N_16 
REMARK    4  A    between atoms: N_16  and  C_18 
REMARK    5  A    between atoms: C_21  and  O_22 
REMARK    6  A    between atoms: O_22  and  C_23 
ROOT
ATOM      1  C   UNL d   1      31.243  45.830   8.039  0.00  0.00    -0.025 A 
ATOM      2  C   UNL d   1      30.256  44.894   8.000  0.00  0.00     0.014 A 
ATOM      3  C   UNL d   1      28.942  45.279   8.158  0.00  0.00     0.030 A 
ATOM      4  C   UNL d   1      28.554  46.589   8.359  0.00  0.00     0.036 A 
ATOM      5  C   UNL d   1      29.552  47.534   8.398  0.00  0.00     0.030 A 
ATOM      6  C   UNL d   1      30.871  47.165   8.241  0.00  0.00     0.014 A 
ENDROOT
BRANCH   4   7
ATOM      7  N   UNL d   1      27.169  46.911   8.515  0.00  0.00    -0.309 N 
ATOM      8  C   UNL d   1      26.520  47.795   7.646  0.00  0.00     0.325 C 
ATOM      9  O   UNL d   1      27.157  48.264   6.669  0.00  0.00    -0.247 OA
ATOM     10  N   UNL d   1      25.164  48.217   7.780  0.00  0.00    -0.309 N 
ATOM     11  HN  UNL d   1      24.612  47.905   8.579  1.00  0.00     0.170 HD
ATOM     12  HN  UNL d   1      26.642  46.488   9.278  1.00  0.00     0.170 HD
BRANCH  10  13
ATOM     13  C   UNL d   1      24.569  49.083   6.794  0.00  0.00     0.036 A 
ATOM     14  C   UNL d   1      25.069  50.332   6.543  0.00  0.00     0.032 A 
ATOM     15  C   UNL d   1      24.454  51.133   5.573  0.00  0.00     0.039 A 
ATOM     16  C   UNL d   1      23.340  50.661   4.873  0.00  0.00     0.078 A 
ATOM     17  C   UNL d   1      22.840  49.393   5.135  0.00  0.00     0.039 A 
ATOM     18  C   UNL d   1      23.473  48.615   6.106  0.00  0.00     0.032 A 
BRANCH  16  19
ATOM     19  O   UNL d   1      22.786  51.511   3.930  0.00  0.00    -0.255 OA
BRANCH  19  20
ATOM     20  C   UNL d   1      23.163  51.486   2.563  0.00  0.00     0.530 C 
ATOM     21  F   UNL d   1      22.057  51.255   1.749  0.00  0.00    -0.144 F 
ATOM     22  F   UNL d   1      23.801  52.657   2.193  0.00  0.00    -0.144 F 
ATOM     23  F   UNL d   1      24.073  50.456   2.303  0.00  0.00    -0.144 F 
ENDBRANCH  19  20
ENDBRANCH  16  19
ENDBRANCH  10  13
ENDBRANCH   4   7
BRANCH   1  24
ATOM     24  C   UNL d   1      32.656  45.578   7.890  0.00  0.00    -0.010 A 
ATOM     25  C   UNL d   1      33.375  45.200   9.010  0.00  0.00     0.015 A 
ATOM     26  C   UNL d   1      34.729  44.935   8.959  0.00  0.00     0.033 A 
ATOM     27  C   UNL d   1      35.405  45.046   7.747  0.00  0.00     0.059 A 
ATOM     28  C   UNL d   1      34.708  45.419   6.622  0.00  0.00     0.089 A 
ATOM     29  N   UNL d   1      35.043  45.615   5.345  0.00  0.00    -0.296 N 
ATOM     30  C   UNL d   1      33.350  45.679   6.704  0.00  0.00     0.048 A 
ATOM     31  N   UNL d   1      34.020  45.973   4.617  0.00  0.00    -0.286 N 
ATOM     32  HN  UNL d   1      35.989  45.497   4.980  1.00  0.00     0.187 HD
ATOM     33  C   UNL d   1      32.955  46.019   5.450  0.00  0.00     0.144 A 
ATOM     34  HN  UNL d   1      34.023  46.179   3.618  1.00  0.00     0.188 HD
ATOM     35  N   UNL d   1      31.658  46.371   5.042  0.00  0.00    -0.080 NA
BRANCH  27  36
ATOM     36  N   UNL d   1      36.793  44.786   7.635  0.00  0.00    -0.388 N 
ATOM     37  C   UNL d   1      37.745  45.773   8.120  0.00  0.00     0.149 C 
ATOM     38  C   UNL d   1      37.320  43.551   7.048  0.00  0.00     0.149 C 
ENDBRANCH  27  36
ENDBRANCH   1  24
TORSDOF 6
ENDMDL
MODEL 2
REMARK VINA RESULT:      -7.4      1.501      2.257
REMARK  6 active torsions:
REMARK  status: ('A' for Active; 'I' for Inactive)
REMARK    1  A    between atoms: N_2  and  C_4 
REMARK    2  A    between atoms: C_7  and  C_8 
REMARK    3  A    between atoms: C_11  and  N_12 
REMARK       I    between atoms: N_12  and  C_14 
REMARK       I    between atoms: C_14  and  N_16 
REMARK    4  A    between atoms: N_16  and  C_18 
REMARK    5  A    between atoms: C_21  and  O_22 
REMARK    6  A    between atoms: O_22  and  C_23 
ROOT
ATOM      1  C   UNL d   1      32.180  45.801   7.529  0.00  0.00    -0.025 A 
ATOM      2  C   UNL d   1      31.136  44.929   7.571  0.00  0.00     0.014 A 
ATOM      3  C   UNL d   1      29.883  45.379   7.931  0.00  0.00     0.030 A 
ATOM      4  C   UNL d   1      29.615  46.693   8.259  0.00  0.00     0.036 A 
ATOM      5  C   UNL d   1      30.670  47.573   8.216  0.00  0.00     0.030 A 
ATOM      6  C   UNL d   1      31.928  47.140   7.858  0.00  0.00     0.014 A 
ENDROOT
BRANCH   4   7
ATOM      7  N   UNL d   1      28.287  47.085   8.623  0.00  0.00    -0.309 N 
ATOM      8  C   UNL d   1      27.479  47.827   7.756  0.00  0.00     0.325 C 
ATOM      9  O   UNL d   1      27.910  48.099   6.607  0.00  0.00    -0.247 OA
ATOM     10  N   UNL d   1      26.176  48.312   8.074  0.00  0.00    -0.309 N 
ATOM     11  HN  UNL d   1      25.793  48.162   9.008  1.00  0.00     0.170 HD
ATOM     12  HN  UNL d   1      27.922  46.817   9.536  1.00  0.00     0.170 HD
BRANCH  10  13
ATOM     13  C   UNL d   1      25.397  49.016   7.087  0.00  0.00     0.036 A 
ATOM     14  C   UNL d   1      25.813  50.211   6.565  0.00  0.00     0.032 A 
ATOM     15  C   UNL d   1      25.019  50.853   5.608  0.00  0.00     0.039 A 
ATOM     16  C   UNL d   1      23.815  50.278   5.192  0.00  0.00     0.078 A 
ATOM     17  C   UNL d   1      23.402  49.067   5.727  0.00  0.00     0.039 A 
ATOM     18  C   UNL d   1      24.212  48.447   6.679  0.00  0.00     0.032 A 
BRANCH  16  19
ATOM     19  O   UNL d   1      23.084  50.973   4.241  0.00  0.00    -0.255 OA
BRANCH  19  20
ATOM     20  C   UNL d   1      23.497  51.081   2.888  0.00  0.00     0.530 C 
ATOM     21  F   UNL d   1      24.300  50.001   2.529  0.00  0.00    -0.144 F 
ATOM     22  F   UNL d   1      22.412  51.184   2.036  0.00  0.00    -0.144 F 
ATOM     23  F   UNL d   1      24.260  52.234   2.679  0.00  0.00    -0.144 F 
ENDBRANCH  19  20
ENDBRANCH  16  19
ENDBRANCH  10  13
ENDBRANCH   4   7
BRANCH   1  24
ATOM     24  C   UNL d   1      33.540  45.478   7.172  0.00  0.00    -0.010 A 
ATOM     25  C   UNL d   1      33.969  45.776   5.892  0.00  0.00     0.015 A 
ATOM     26  C   UNL d   1      35.255  45.507   5.466  0.00  0.00     0.033 A 
ATOM     27  C   UNL d   1      36.159  44.915   6.344  0.00  0.00     0.059 A 
ATOM     28  C   UNL d   1      35.752  44.612   7.622  0.00  0.00     0.089 A 
ATOM     29  N   UNL d   1      36.349  44.057   8.679  0.00  0.00    -0.296 N 
ATOM     30  C   UNL d   1      34.456  44.894   8.021  0.00  0.00     0.048 A 
ATOM     31  N   UNL d   1      35.546  43.966   9.705  0.00  0.00    -0.286 N 
ATOM     32  HN  UNL d   1      37.320  43.742   8.684  1.00  0.00     0.187 HD
ATOM     33  C   UNL d   1      34.360  44.483   9.311  0.00  0.00     0.144 A 
ATOM     34  HN  UNL d   1      35.770  43.581  10.623  1.00  0.00     0.188 HD
ATOM     35  N   UNL d   1      33.229  44.563  10.139  0.00  0.00    -0.080 NA
BRANCH  27  36
ATOM     36  N   UNL d   1      37.489  44.616   5.962  0.00  0.00    -0.388 N 
ATOM     37  C   UNL d   1      38.473  45.686   5.903  0.00  0.00     0.149 C 
ATOM     38  C   UNL d   1      37.926  43.259   5.620  0.00  0.00     0.149 C 
ENDBRANCH  27  36
ENDBRANCH   1  24
TORSDOF 6
ENDMDL
MODEL 3
REMARK VINA RESULT:      -7.3      2.018      3.264
REMARK  6 active torsions:
REMARK  status: ('A' for Active; 'I' for Inactive)
REMARK    1  A    between atoms: N_2  and  C_4 
REMARK    2  A    between atoms: C_7  and  C_8 
REMARK    3  A    between atoms: C_11  and  N_12 
REMARK       I    between atoms: N_12  and  C_14 
REMARK       I    between atoms: C_14  and  N_16 
REMARK    4  A    between atoms: N_16  and  C_18 
REMARK    5  A    between atoms: C_21  and  O_22 
REMARK    6  A    between atoms: O_22  and  C_23 
ROOT
ATOM      1  C   UNL d   1      33.542  44.988   7.952  0.00  0.00    -0.025 A 
ATOM      2  C   UNL d   1      32.736  43.998   8.422  0.00  0.00     0.014 A 
ATOM      3  C   UNL d   1      31.402  44.255   8.657  0.00  0.00     0.030 A 
ATOM      4  C   UNL d   1      30.818  45.487   8.439  0.00  0.00     0.036 A 
ATOM      5  C   UNL d   1      31.633  46.487   7.964  0.00  0.00     0.030 A 
ATOM      6  C   UNL d   1      32.968  46.246   7.723  0.00  0.00     0.014 A 
ENDROOT
BRANCH   4   7
ATOM      7  N   UNL d   1      29.425  45.678   8.707  0.00  0.00    -0.309 N 
ATOM      8  C   UNL d   1      28.683  46.671   8.059  0.00  0.00     0.325 C 
ATOM      9  O   UNL d   1      29.244  47.367   7.175  0.00  0.00    -0.247 OA
ATOM     10  N   UNL d   1      27.313  46.966   8.324  0.00  0.00    -0.309 N 
ATOM     11  HN  UNL d   1      26.820  46.464   9.063  1.00  0.00     0.170 HD
ATOM     12  HN  UNL d   1      28.961  45.076   9.388  1.00  0.00     0.170 HD
BRANCH  10  13
ATOM     13  C   UNL d   1      26.621  47.969   7.555  0.00  0.00     0.036 A 
ATOM     14  C   UNL d   1      25.254  48.039   7.536  0.00  0.00     0.032 A 
ATOM     15  C   UNL d   1      24.630  49.033   6.773  0.00  0.00     0.039 A 
ATOM     16  C   UNL d   1      25.397  49.942   6.040  0.00  0.00     0.078 A 
ATOM     17  C   UNL d   1      26.782  49.863   6.065  0.00  0.00     0.039 A 
ATOM     18  C   UNL d   1      27.379  48.862   6.834  0.00  0.00     0.032 A 
BRANCH  16  19
ATOM     19  O   UNL d   1      24.709  50.897   5.309  0.00  0.00    -0.255 OA
BRANCH  19  20
ATOM     20  C   UNL d   1      24.334  50.701   3.955  0.00  0.00     0.530 C 
ATOM     21  F   UNL d   1      23.516  49.582   3.825  0.00  0.00    -0.144 F 
ATOM     22  F   UNL d   1      23.710  51.822   3.437  0.00  0.00    -0.144 F 
ATOM     23  F   UNL d   1      25.452  50.476   3.144  0.00  0.00    -0.144 F 
ENDBRANCH  19  20
ENDBRANCH  16  19
ENDBRANCH  10  13
ENDBRANCH   4   7
BRANCH   1  24
ATOM     24  C   UNL d   1      34.950  44.868   7.660  0.00  0.00    -0.010 A 
ATOM     25  C   UNL d   1      35.321  44.376   6.422  0.00  0.00     0.015 A 
ATOM     26  C   UNL d   1      36.645  44.232   6.056  0.00  0.00     0.033 A 
ATOM     27  C   UNL d   1      37.649  44.590   6.952  0.00  0.00     0.059 A 
ATOM     28  C   UNL d   1      37.299  45.082   8.188  0.00  0.00     0.089 A 
ATOM     29  N   UNL d   1      37.992  45.504   9.248  0.00  0.00    -0.296 N 
ATOM     30  C   UNL d   1      35.963  45.215   8.527  0.00  0.00     0.048 A 
ATOM     31  N   UNL d   1      37.212  45.890  10.222  0.00  0.00    -0.286 N 
ATOM     32  HN  UNL d   1      39.011  45.522   9.292  1.00  0.00     0.187 HD
ATOM     33  C   UNL d   1      35.942  45.716   9.789  0.00  0.00     0.144 A 
ATOM     34  HN  UNL d   1      37.503  46.251  11.130  1.00  0.00     0.188 HD
ATOM     35  N   UNL d   1      34.806  46.017  10.557  0.00  0.00    -0.080 NA
BRANCH  27  36
ATOM     36  N   UNL d   1      39.022  44.463   6.631  0.00  0.00    -0.388 N 
ATOM     37  C   UNL d   1      39.659  43.158   6.720  0.00  0.00     0.149 C 
ATOM     38  C   UNL d   1      39.841  45.602   6.206  0.00  0.00     0.149 C 
ENDBRANCH  27  36
ENDBRANCH   1  24
TORSDOF 6
ENDMDL
MODEL 4
REMARK VINA RESULT:      -7.1      5.810     11.314
REMARK  6 active torsions:
REMARK  status: ('A' for Active; 'I' for Inactive)
REMARK    1  A    between atoms: N_2  and  C_4 
REMARK    2  A    between atoms: C_7  and  C_8 
REMARK    3  A    between atoms: C_11  and  N_12 
REMARK       I    between atoms: N_12  and  C_14 
REMARK       I    between atoms: C_14  and  N_16 
REMARK    4  A    between atoms: N_16  and  C_18 
REMARK    5  A    between atoms: C_21  and  O_22 
REMARK    6  A    between atoms: O_22  and  C_23 
ROOT
ATOM      1  C   UNL d   1      28.182  47.113   7.898  0.00  0.00    -0.025 A 
ATOM      2  C   UNL d   1      28.430  46.788   9.196  0.00  0.00     0.014 A 
ATOM      3  C   UNL d   1      29.466  45.931   9.500  0.00  0.00     0.030 A 
ATOM      4  C   UNL d   1      30.290  45.368   8.546  0.00  0.00     0.036 A 
ATOM      5  C   UNL d   1      30.039  45.697   7.235  0.00  0.00     0.030 A 
ATOM      6  C   UNL d   1      29.007  46.553   6.914  0.00  0.00     0.014 A 
ENDROOT
BRANCH   4   7
ATOM      7  N   UNL d   1      31.346  44.486   8.939  0.00  0.00    -0.309 N 
ATOM      8  C   UNL d   1      32.691  44.827   8.759  0.00  0.00     0.325 C 
ATOM      9  O   UNL d   1      32.972  45.963   8.299  0.00  0.00    -0.247 OA
ATOM     10  N   UNL d   1      33.793  43.975   9.061  0.00  0.00    -0.309 N 
ATOM     11  HN  UNL d   1      33.624  43.025   9.394  1.00  0.00     0.170 HD
ATOM     12  HN  UNL d   1      31.114  43.588   9.361  1.00  0.00     0.170 HD
BRANCH  10  13
ATOM     13  C   UNL d   1      35.146  44.445   8.898  0.00  0.00     0.036 A 
ATOM     14  C   UNL d   1      35.729  45.277   9.815  0.00  0.00     0.032 A 
ATOM     15  C   UNL d   1      37.047  45.704   9.609  0.00  0.00     0.039 A 
ATOM     16  C   UNL d   1      37.755  45.284   8.480  0.00  0.00     0.078 A 
ATOM     17  C   UNL d   1      37.154  44.440   7.557  0.00  0.00     0.039 A 
ATOM     18  C   UNL d   1      35.840  44.029   7.786  0.00  0.00     0.032 A 
BRANCH  16  19
ATOM     19  O   UNL d   1      39.053  45.749   8.345  0.00  0.00    -0.255 OA
BRANCH  19  20
ATOM     20  C   UNL d   1      39.409  46.770   7.427  0.00  0.00     0.530 C 
ATOM     21  F   UNL d   1      40.307  47.664   8.005  0.00  0.00    -0.144 F 
ATOM     22  F   UNL d   1      39.934  46.240   6.262  0.00  0.00    -0.144 F 
ATOM     23  F   UNL d   1      38.293  47.518   7.040  0.00  0.00    -0.144 F 
ENDBRANCH  19  20
ENDBRANCH  16  19
ENDBRANCH  10  13
ENDBRANCH   4   7
BRANCH   1  24
ATOM     24  C   UNL d   1      27.138  47.992   7.429  0.00  0.00    -0.010 A 
ATOM     25  C   UNL d   1      25.825  47.577   7.562  0.00  0.00     0.015 A 
ATOM     26  C   UNL d   1      24.763  48.355   7.146  0.00  0.00     0.033 A 
ATOM     27  C   UNL d   1      25.007  49.600   6.572  0.00  0.00     0.059 A 
ATOM     28  C   UNL d   1      26.305  50.031   6.433  0.00  0.00     0.089 A 
ATOM     29  N   UNL d   1      26.868  51.136   5.939  0.00  0.00    -0.296 N 
ATOM     30  C   UNL d   1      27.350  49.229   6.859  0.00  0.00     0.048 A 
ATOM     31  N   UNL d   1      28.171  51.100   6.017  0.00  0.00    -0.286 N 
ATOM     32  HN  UNL d   1      26.341  51.916   5.546  1.00  0.00     0.187 HD
ATOM     33  C   UNL d   1      28.489  49.916   6.588  0.00  0.00     0.144 A 
ATOM     34  HN  UNL d   1      28.821  51.823   5.708  1.00  0.00     0.188 HD
ATOM     35  N   UNL d   1      29.805  49.500   6.844  0.00  0.00    -0.080 NA
BRANCH  27  36
ATOM     36  N   UNL d   1      23.957  50.440   6.128  0.00  0.00    -0.388 N 
ATOM     37  C   UNL d   1      23.801  50.695   4.704  0.00  0.00     0.149 C 
ATOM     38  C   UNL d   1      23.007  51.071   7.048  0.00  0.00     0.149 C 
ENDBRANCH  27  36
ENDBRANCH   1  24
TORSDOF 6
ENDMDL
MODEL 5
REMARK VINA RESULT:      -7.0      6.039     11.849
REMARK  6 active torsions:
REMARK  status: ('A' for Active; 'I' for Inactive)
REMARK    1  A    between atoms: N_2  and  C_4 
REMARK    2  A    between atoms: C_7  and  C_8 
REMARK    3  A    between atoms: C_11  and  N_12 
REMARK       I    between atoms: N_12  and  C_14 
REMARK       I    between atoms: C_14  and  N_16 
REMARK    4  A    between atoms: N_16  and  C_18 
REMARK    5  A    between atoms: C_21  and  O_22 
REMARK    6  A    between atoms: O_22  and  C_23 
ROOT
ATOM      1  C   UNL d   1      26.655  48.874   6.832  0.00  0.00    -0.025 A 
ATOM      2  C   UNL d   1      27.543  49.292   5.890  0.00  0.00     0.014 A 
ATOM      3  C   UNL d   1      28.887  49.033   6.054  0.00  0.00     0.030 A 
ATOM      4  C   UNL d   1      29.402  48.358   7.142  0.00  0.00     0.036 A 
ATOM      5  C   UNL d   1      28.505  47.935   8.094  0.00  0.00     0.030 A 
ATOM      6  C   UNL d   1      27.157  48.185   7.945  0.00  0.00     0.014 A 
ENDROOT
BRANCH   4   7
ATOM      7  N   UNL d   1      30.811  48.127   7.242  0.00  0.00    -0.309 N 
ATOM      8  C   UNL d   1      31.327  46.861   7.539  0.00  0.00     0.325 C 
ATOM      9  O   UNL d   1      30.532  45.894   7.656  0.00  0.00    -0.247 OA
ATOM     10  N   UNL d   1      32.711  46.570   7.723  0.00  0.00    -0.309 N 
ATOM     11  HN  UNL d   1      33.397  47.324   7.686  1.00  0.00     0.170 HD
ATOM     12  HN  UNL d   1      31.455  48.904   7.095  1.00  0.00     0.170 HD
BRANCH  10  13
ATOM     13  C   UNL d   1      33.146  45.217   7.964  0.00  0.00     0.036 A 
ATOM     14  C   UNL d   1      33.795  44.492   7.001  0.00  0.00     0.032 A 
ATOM     15  C   UNL d   1      34.198  43.182   7.287  0.00  0.00     0.039 A 
ATOM     16  C   UNL d   1      33.939  42.624   8.541  0.00  0.00     0.078 A 
ATOM     17  C   UNL d   1      33.280  43.367   9.511  0.00  0.00     0.039 A 
ATOM     18  C   UNL d   1      32.890  44.670   9.200  0.00  0.00     0.032 A 
BRANCH  16  19
ATOM     19  O   UNL d   1      34.368  41.323   8.750  0.00  0.00    -0.255 OA
BRANCH  19  20
ATOM     20  C   UNL d   1      35.213  40.960   9.829  0.00  0.00     0.530 C 
ATOM     21  F   UNL d   1      36.306  40.225   9.376  0.00  0.00    -0.144 F 
ATOM     22  F   UNL d   1      35.636  42.072  10.535  0.00  0.00    -0.144 F 
ATOM     23  F   UNL d   1      34.542  40.151  10.753  0.00  0.00    -0.144 F 
ENDBRANCH  19  20
ENDBRANCH  16  19
ENDBRANCH  10  13
ENDBRANCH   4   7
BRANCH   1  24
ATOM     24  C   UNL d   1      25.226  49.071   6.797  0.00  0.00    -0.010 A 
ATOM     25  C   UNL d   1      24.412  47.953   6.800  0.00  0.00     0.015 A 
ATOM     26  C   UNL d   1      23.035  48.047   6.773  0.00  0.00     0.033 A 
ATOM     27  C   UNL d   1      22.433  49.303   6.742  0.00  0.00     0.059 A 
ATOM     28  C   UNL d   1      23.226  50.426   6.741  0.00  0.00     0.089 A 
ATOM     29  N   UNL d   1      22.977  51.737   6.715  0.00  0.00    -0.296 N 
ATOM     30  C   UNL d   1      24.604  50.300   6.768  0.00  0.00     0.048 A 
ATOM     31  N   UNL d   1      24.074  52.446   6.724  0.00  0.00    -0.286 N 
ATOM     32  HN  UNL d   1      22.039  52.138   6.691  1.00  0.00     0.187 HD
ATOM     33  C   UNL d   1      25.099  51.564   6.757  0.00  0.00     0.144 A 
ATOM     34  HN  UNL d   1      24.144  53.463   6.710  1.00  0.00     0.188 HD
ATOM     35  N   UNL d   1      26.452  51.939   6.774  0.00  0.00    -0.080 NA
BRANCH  27  36
ATOM     36  N   UNL d   1      21.026  49.460   6.714  0.00  0.00    -0.388 N 
ATOM     37  C   UNL d   1      20.268  49.337   7.949  0.00  0.00     0.149 C 
ATOM     38  C   UNL d   1      20.289  49.746   5.479  0.00  0.00     0.149 C 
ENDBRANCH  27  36
ENDBRANCH   1  24
TORSDOF 6
ENDMDL
MODEL 6
REMARK VINA RESULT:      -6.9      5.646     11.689
REMARK  6 active torsions:
REMARK  status: ('A' for Active; 'I' for Inactive)
REMARK    1  A    between atoms: N_2  and  C_4 
REMARK    2  A    between atoms: C_7  and  C_8 
REMARK    3  A    between atoms: C_11  and  N_12 
REMARK       I    between atoms: N_12  and  C_14 
REMARK       I    between atoms: C_14  and  N_16 
REMARK    4  A    between atoms: N_16  and  C_18 
REMARK    5  A    between atoms: C_21  and  O_22 
REMARK    6  A    between atoms: O_22  and  C_23 
ROOT
ATOM      1  C   UNL d   1      25.042  50.480   5.112  0.00  0.00    -0.025 A 
ATOM      2  C   UNL d   1      24.447  49.588   5.950  0.00  0.00     0.014 A 
ATOM      3  C   UNL d   1      25.173  49.027   6.980  0.00  0.00     0.030 A 
ATOM      4  C   UNL d   1      26.499  49.322   7.220  0.00  0.00     0.036 A 
ATOM      5  C   UNL d   1      27.100  50.223   6.373  0.00  0.00     0.030 A 
ATOM      6  C   UNL d   1      26.388  50.793   5.339  0.00  0.00     0.014 A 
ENDROOT
BRANCH   4   7
ATOM      7  N   UNL d   1      27.187  48.699   8.310  0.00  0.00    -0.309 N 
ATOM      8  C   UNL d   1      28.065  47.629   8.106  0.00  0.00     0.325 C 
ATOM      9  O   UNL d   1      28.300  47.252   6.931  0.00  0.00    -0.247 OA
ATOM     10  N   UNL d   1      28.731  46.915   9.146  0.00  0.00    -0.309 N 
ATOM     11  HN  UNL d   1      28.542  47.147  10.122  1.00  0.00     0.170 HD
ATOM     12  HN  UNL d   1      27.033  49.042   9.257  1.00  0.00     0.170 HD
BRANCH  10  13
ATOM     13  C   UNL d   1      29.666  45.866   8.828  0.00  0.00     0.036 A 
ATOM     14  C   UNL d   1      30.850  46.131   8.194  0.00  0.00     0.032 A 
ATOM     15  C   UNL d   1      31.725  45.076   7.909  0.00  0.00     0.039 A 
ATOM     16  C   UNL d   1      31.389  43.767   8.267  0.00  0.00     0.078 A 
ATOM     17  C   UNL d   1      30.187  43.509   8.909  0.00  0.00     0.039 A 
ATOM     18  C   UNL d   1      29.333  44.579   9.183  0.00  0.00     0.032 A 
BRANCH  16  19
ATOM     19  O   UNL d   1      32.305  42.776   7.952  0.00  0.00    -0.255 OA
BRANCH  19  20
ATOM     20  C   UNL d   1      33.485  42.556   8.709  0.00  0.00     0.530 C 
ATOM     21  F   UNL d   1      34.559  43.253   8.162  0.00  0.00    -0.144 F 
ATOM     22  F   UNL d   1      33.305  42.904  10.036  0.00  0.00    -0.144 F 
ATOM     23  F   UNL d   1      33.844  41.204   8.711  0.00  0.00    -0.144 F 
ENDBRANCH  19  20
ENDBRANCH  16  19
ENDBRANCH  10  13
ENDBRANCH   4   7
BRANCH   1  24
ATOM     24  C   UNL d   1      24.412  51.145   3.997  0.00  0.00    -0.010 A 
ATOM     25  C   UNL d   1      24.539  50.578   2.742  0.00  0.00     0.015 A 
ATOM     26  C   UNL d   1      23.966  51.143   1.620  0.00  0.00     0.033 A 
ATOM     27  C   UNL d   1      23.234  52.321   1.742  0.00  0.00     0.059 A 
ATOM     28  C   UNL d   1      23.096  52.900   2.982  0.00  0.00     0.089 A 
ATOM     29  N   UNL d   1      22.480  53.995   3.431  0.00  0.00    -0.296 N 
ATOM     30  C   UNL d   1      23.682  52.310   4.089  0.00  0.00     0.048 A 
ATOM     31  N   UNL d   1      22.625  54.146   4.720  0.00  0.00    -0.286 N 
ATOM     32  HN  UNL d   1      21.956  54.638   2.836  1.00  0.00     0.187 HD
ATOM     33  C   UNL d   1      23.374  53.104   5.147  0.00  0.00     0.144 A 
ATOM     34  HN  UNL d   1      22.249  54.902   5.292  1.00  0.00     0.188 HD
ATOM     35  N   UNL d   1      23.753  52.909   6.485  0.00  0.00    -0.080 NA
BRANCH  27  36
ATOM     36  N   UNL d   1      22.625  52.945   0.626  0.00  0.00    -0.388 N 
ATOM     37  C   UNL d   1      23.353  53.972  -0.104  0.00  0.00     0.149 C 
ATOM     38  C   UNL d   1      21.277  52.598   0.166  0.00  0.00     0.149 C 
ENDBRANCH  27  36
ENDBRANCH   1  24
TORSDOF 6
ENDMDL
MODEL 7
REMARK VINA RESULT:      -6.6      2.454      3.473
REMARK  6 active torsions:
REMARK  status: ('A' for Active; 'I' for Inactive)
REMARK    1  A    between atoms: N_2  and  C_4 
REMARK    2  A    between atoms: C_7  and  C_8 
REMARK    3  A    between atoms: C_11  and  N_12 
REMARK       I    between atoms: N_12  and  C_14 
REMARK       I    between atoms: C_14  and  N_16 
REMARK    4  A    between atoms: N_16  and  C_18 
REMARK    5  A    between atoms: C_21  and  O_22 
REMARK    6  A    between atoms: O_22  and  C_23 
ROOT
ATOM      1  C   UNL d   1      32.972  47.399   7.379  0.00  0.00    -0.025 A 
ATOM      2  C   UNL d   1      32.224  48.353   7.998  0.00  0.00     0.014 A 
ATOM      3  C   UNL d   1      30.898  48.105   8.281  0.00  0.00     0.030 A 
ATOM      4  C   UNL d   1      30.264  46.920   7.970  0.00  0.00     0.036 A 
ATOM      5  C   UNL d   1      31.020  45.956   7.345  0.00  0.00     0.030 A 
ATOM      6  C   UNL d   1      32.348  46.187   7.055  0.00  0.00     0.014 A 
ENDROOT
BRANCH   4   7
ATOM      7  N   UNL d   1      28.883  46.736   8.296  0.00  0.00    -0.309 N 
ATOM      8  C   UNL d   1      27.883  47.525   7.720  0.00  0.00     0.325 C 
ATOM      9  O   UNL d   1      28.204  48.370   6.846  0.00  0.00    -0.247 OA
ATOM     10  N   UNL d   1      26.497  47.447   8.047  0.00  0.00    -0.309 N 
ATOM     11  HN  UNL d   1      26.183  46.812   8.781  1.00  0.00     0.170 HD
ATOM     12  HN  UNL d   1      28.622  46.013   8.967  1.00  0.00     0.170 HD
BRANCH  10  13
ATOM     13  C   UNL d   1      25.535  48.262   7.348  0.00  0.00     0.036 A 
ATOM     14  C   UNL d   1      24.326  47.759   6.949  0.00  0.00     0.032 A 
ATOM     15  C   UNL d   1      23.427  48.593   6.275  0.00  0.00     0.039 A 
ATOM     16  C   UNL d   1      23.763  49.924   6.011  0.00  0.00     0.078 A 
ATOM     17  C   UNL d   1      24.991  50.424   6.419  0.00  0.00     0.039 A 
ATOM     18  C   UNL d   1      25.869  49.572   7.091  0.00  0.00     0.032 A 
BRANCH  16  19
ATOM     19  O   UNL d   1      22.822  50.687   5.339  0.00  0.00    -0.255 OA
BRANCH  19  20
ATOM     20  C   UNL d   1      21.981  51.620   5.999  0.00  0.00     0.530 C 
ATOM     21  F   UNL d   1      22.668  52.802   6.266  0.00  0.00    -0.144 F 
ATOM     22  F   UNL d   1      20.838  51.877   5.265  0.00  0.00    -0.144 F 
ATOM     23  F   UNL d   1      21.542  51.125   7.233  0.00  0.00    -0.144 F 
ENDBRANCH  19  20
ENDBRANCH  16  19
ENDBRANCH  10  13
ENDBRANCH   4   7
BRANCH   1  24
ATOM     24  C   UNL d   1      34.365  47.514   7.020  0.00  0.00    -0.010 A 
ATOM     25  C   UNL d   1      34.679  48.037   5.780  0.00  0.00     0.015 A 
ATOM     26  C   UNL d   1      35.984  48.189   5.355  0.00  0.00     0.033 A 
ATOM     27  C   UNL d   1      37.028  47.806   6.194  0.00  0.00     0.059 A 
ATOM     28  C   UNL d   1      36.736  47.285   7.432  0.00  0.00     0.089 A 
ATOM     29  N   UNL d   1      37.476  46.833   8.447  0.00  0.00    -0.296 N 
ATOM     30  C   UNL d   1      35.417  47.145   7.830  0.00  0.00     0.048 A 
ATOM     31  N   UNL d   1      36.742  46.423   9.446  0.00  0.00    -0.286 N 
ATOM     32  HN  UNL d   1      38.496  46.812   8.441  1.00  0.00     0.187 HD
ATOM     33  C   UNL d   1      35.454  46.610   9.078  0.00  0.00     0.144 A 
ATOM     34  HN  UNL d   1      37.074  46.037  10.330  1.00  0.00     0.188 HD
ATOM     35  N   UNL d   1      34.354  46.286   9.888  0.00  0.00    -0.080 NA
BRANCH  27  36
ATOM     36  N   UNL d   1      38.385  47.938   5.811  0.00  0.00    -0.388 N 
ATOM     37  C   UNL d   1      39.038  49.232   5.931  0.00  0.00     0.149 C 
ATOM     38  C   UNL d   1      39.172  46.815   5.294  0.00  0.00     0.149 C 
ENDBRANCH  27  36
ENDBRANCH   1  24
TORSDOF 6
ENDMDL
MODEL 8
REMARK VINA RESULT:      -6.6      6.140     10.777
REMARK  6 active torsions:
REMARK  status: ('A' for Active; 'I' for Inactive)
REMARK    1  A    between atoms: N_2  and  C_4 
REMARK    2  A    between atoms: C_7  and  C_8 
REMARK    3  A    between atoms: C_11  and  N_12 
REMARK       I    between atoms: N_12  and  C_14 
REMARK       I    between atoms: C_14  and  N_16 
REMARK    4  A    between atoms: N_16  and  C_18 
REMARK    5  A    between atoms: C_21  and  O_22 
REMARK    6  A    between atoms: O_22  and  C_23 
ROOT
ATOM      1  C   UNL d   1      27.031  51.175   5.560  0.00  0.00    -0.025 A 
ATOM      2  C   UNL d   1      26.060  50.987   6.494  0.00  0.00     0.014 A 
ATOM      3  C   UNL d   1      26.053  49.834   7.251  0.00  0.00     0.030 A 
ATOM      4  C   UNL d   1      26.994  48.833   7.116  0.00  0.00     0.036 A 
ATOM      5  C   UNL d   1      27.975  49.024   6.172  0.00  0.00     0.030 A 
ATOM      6  C   UNL d   1      27.997  50.171   5.408  0.00  0.00     0.014 A 
ENDROOT
BRANCH   4   7
ATOM      7  N   UNL d   1      26.921  47.664   7.939  0.00  0.00    -0.309 N 
ATOM      8  C   UNL d   1      28.025  46.826   8.120  0.00  0.00     0.325 C 
ATOM      9  O   UNL d   1      29.123  47.146   7.598  0.00  0.00    -0.247 OA
ATOM     10  N   UNL d   1      28.009  45.610   8.866  0.00  0.00    -0.309 N 
ATOM     11  HN  UNL d   1      27.136  45.276   9.273  1.00  0.00     0.170 HD
ATOM     12  HN  UNL d   1      26.042  47.436   8.403  1.00  0.00     0.170 HD
BRANCH  10  13
ATOM     13  C   UNL d   1      29.219  44.848   9.046  0.00  0.00     0.036 A 
ATOM     14  C   UNL d   1      29.275  43.786   9.909  0.00  0.00     0.032 A 
ATOM     15  C   UNL d   1      30.475  43.079  10.046  0.00  0.00     0.039 A 
ATOM     16  C   UNL d   1      31.602  43.455   9.311  0.00  0.00     0.078 A 
ATOM     17  C   UNL d   1      31.536  44.533   8.440  0.00  0.00     0.039 A 
ATOM     18  C   UNL d   1      30.327  45.221   8.321  0.00  0.00     0.032 A 
BRANCH  16  19
ATOM     19  O   UNL d   1      32.753  42.707   9.501  0.00  0.00    -0.255 OA
BRANCH  19  20
ATOM     20  C   UNL d   1      33.902  43.224  10.154  0.00  0.00     0.530 C 
ATOM     21  F   UNL d   1      34.806  42.205  10.442  0.00  0.00    -0.144 F 
ATOM     22  F   UNL d   1      34.508  44.213   9.401  0.00  0.00    -0.144 F 
ATOM     23  F   UNL d   1      33.569  43.821  11.375  0.00  0.00    -0.144 F 
ENDBRANCH  19  20
ENDBRANCH  16  19
ENDBRANCH  10  13
ENDBRANCH   4   7
BRANCH   1  24
ATOM     24  C   UNL d   1      27.167  52.325   4.698  0.00  0.00    -0.010 A 
ATOM     25  C   UNL d   1      26.558  52.287   3.458  0.00  0.00     0.015 A 
ATOM     26  C   UNL d   1      26.631  53.343   2.570  0.00  0.00     0.033 A 
ATOM     27  C   UNL d   1      27.338  54.489   2.924  0.00  0.00     0.059 A 
ATOM     28  C   UNL d   1      27.949  54.546   4.155  0.00  0.00     0.089 A 
ATOM     29  N   UNL d   1      28.683  55.467   4.784  0.00  0.00    -0.296 N 
ATOM     30  C   UNL d   1      27.859  53.472   5.023  0.00  0.00     0.048 A 
ATOM     31  N   UNL d   1      29.060  55.068   5.969  0.00  0.00    -0.286 N 
ATOM     32  HN  UNL d   1      28.920  56.376   4.385  1.00  0.00     0.187 HD
ATOM     33  C   UNL d   1      28.555  53.824   6.134  0.00  0.00     0.144 A 
ATOM     34  HN  UNL d   1      29.625  55.591   6.638  1.00  0.00     0.188 HD
ATOM     35  N   UNL d   1      28.745  53.050   7.290  0.00  0.00    -0.080 NA
BRANCH  27  36
ATOM     36  N   UNL d   1      27.446  55.602   2.055  0.00  0.00    -0.388 N 
ATOM     37  C   UNL d   1      28.592  55.703   1.165  0.00  0.00     0.149 C 
ATOM     38  C   UNL d   1      26.443  56.669   2.011  0.00  0.00     0.149 C 
ENDBRANCH  27  36
ENDBRANCH   1  24
TORSDOF 6
ENDMDL
MODEL 9
REMARK VINA RESULT:      -6.6      5.521     11.520
REMARK  6 active torsions:
REMARK  status: ('A' for Active; 'I' for Inactive)
REMARK    1  A    between atoms: N_2  and  C_4 
REMARK    2  A    between atoms: C_7  and  C_8 
REMARK    3  A    between atoms: C_11  and  N_12 
REMARK       I    between atoms: N_12  and  C_14 
REMARK       I    between atoms: C_14  and  N_16 
REMARK    4  A    between atoms: N_16  and  C_18 
REMARK    5  A    between atoms: C_21  and  O_22 
REMARK    6  A    between atoms: O_22  and  C_23 
ROOT
ATOM      1  C   UNL d   1      24.764  51.245   4.750  0.00  0.00    -0.025 A 
ATOM      2  C   UNL d   1      24.285  50.120   5.348  0.00  0.00     0.014 A 
ATOM      3  C   UNL d   1      24.975  49.560   6.402  0.00  0.00     0.030 A 
ATOM      4  C   UNL d   1      26.151  50.081   6.901  0.00  0.00     0.036 A 
ATOM      5  C   UNL d   1      26.635  51.217   6.297  0.00  0.00     0.030 A 
ATOM      6  C   UNL d   1      25.957  51.791   5.242  0.00  0.00     0.014 A 
ENDROOT
BRANCH   4   7
ATOM      7  N   UNL d   1      26.811  49.442   7.999  0.00  0.00    -0.309 N 
ATOM      8  C   UNL d   1      27.671  48.356   7.806  0.00  0.00     0.325 C 
ATOM      9  O   UNL d   1      27.916  47.978   6.633  0.00  0.00    -0.247 OA
ATOM     10  N   UNL d   1      28.307  47.627   8.853  0.00  0.00    -0.309 N 
ATOM     11  HN  UNL d   1      28.109  47.859   9.827  1.00  0.00     0.170 HD
ATOM     12  HN  UNL d   1      26.649  49.786   8.945  1.00  0.00     0.170 HD
BRANCH  10  13
ATOM     13  C   UNL d   1      29.227  46.561   8.546  0.00  0.00     0.036 A 
ATOM     14  C   UNL d   1      28.870  45.246   8.680  0.00  0.00     0.032 A 
ATOM     15  C   UNL d   1      29.802  44.249   8.367  0.00  0.00     0.039 A 
ATOM     16  C   UNL d   1      31.082  44.595   7.925  0.00  0.00     0.078 A 
ATOM     17  C   UNL d   1      31.434  45.931   7.793  0.00  0.00     0.039 A 
ATOM     18  C   UNL d   1      30.487  46.905   8.111  0.00  0.00     0.032 A 
BRANCH  16  19
ATOM     19  O   UNL d   1      31.948  43.554   7.636  0.00  0.00    -0.255 OA
BRANCH  19  20
ATOM     20  C   UNL d   1      32.926  43.094   8.555  0.00  0.00     0.530 C 
ATOM     21  F   UNL d   1      33.986  43.994   8.639  0.00  0.00    -0.144 F 
ATOM     22  F   UNL d   1      32.379  42.871   9.805  0.00  0.00    -0.144 F 
ATOM     23  F   UNL d   1      33.471  41.871   8.150  0.00  0.00    -0.144 F 
ENDBRANCH  19  20
ENDBRANCH  16  19
ENDBRANCH  10  13
ENDBRANCH   4   7
BRANCH   1  24
ATOM     24  C   UNL d   1      24.155  51.941   3.642  0.00  0.00    -0.010 A 
ATOM     25  C   UNL d   1      23.104  52.799   3.909  0.00  0.00     0.015 A 
ATOM     26  C   UNL d   1      22.465  53.510   2.912  0.00  0.00     0.033 A 
ATOM     27  C   UNL d   1      22.883  53.367   1.591  0.00  0.00     0.059 A 
ATOM     28  C   UNL d   1      23.927  52.519   1.306  0.00  0.00     0.089 A 
ATOM     29  N   UNL d   1      24.553  52.163   0.182  0.00  0.00    -0.296 N 
ATOM     30  C   UNL d   1      24.548  51.819   2.327  0.00  0.00     0.048 A 
ATOM     31  N   UNL d   1      25.511  51.304   0.405  0.00  0.00    -0.286 N 
ATOM     32  HN  UNL d   1      24.311  52.521  -0.742  1.00  0.00     0.187 HD
ATOM     33  C   UNL d   1      25.522  51.078   1.739  0.00  0.00     0.144 A 
ATOM     34  HN  UNL d   1      26.130  50.886  -0.290  1.00  0.00     0.188 HD
ATOM     35  N   UNL d   1      26.416  50.203   2.376  0.00  0.00    -0.080 NA
BRANCH  27  36
ATOM     36  N   UNL d   1      22.265  54.070   0.529  0.00  0.00    -0.388 N 
ATOM     37  C   UNL d   1      22.638  55.453   0.274  0.00  0.00     0.149 C 
ATOM     38  C   UNL d   1      21.253  53.460  -0.339  0.00  0.00     0.149 C 
ENDBRANCH  27  36
ENDBRANCH   1  24
TORSDOF 6
ENDMDL
