MODEL 1
REMARK VINA RESULT:      -9.5      0.000      0.000
REMARK  3 active torsions:
REMARK  status: ('A' for Active; 'I' for Inactive)
REMARK    1  A    between atoms: C_2  and  C_3 
REMARK    2  A    between atoms: C_7  and  N_8 
REMARK       I    between atoms: N_8  and  C_10 
REMARK       I    between atoms: C_10  and  N_12 
REMARK    3  A    between atoms: N_12  and  C_14 
ROOT
ATOM      1  C   UNL d   1      28.967  45.846   8.425  0.00  0.00     0.036 A 
ATOM      2  C   UNL d   1      29.739  46.252   7.380  0.00  0.00     0.037 A 
ATOM      3  C   UNL d   1      31.048  45.789   7.155  0.00  0.00    -0.044 A 
ATOM      4  C   UNL d   1      31.576  44.875   8.041  0.00  0.00    -0.017 A 
ATOM      5  C   UNL d   1      30.768  44.493   9.075  0.00  0.00     0.015 A 
ATOM      6  C   UNL d   1      29.499  44.932   9.307  0.00  0.00     0.030 A 
ATOM      7  C   UNL d   1      32.960  44.343   7.858  0.00  0.00     0.004 A 
ATOM      8  C   UNL d   1      33.578  44.877   6.742  0.00  0.00    -0.003 A 
ATOM      9  C   UNL d   1      33.045  45.860   5.767  0.00  0.00     0.051 A 
ATOM     10  C   UNL d   1      31.713  46.340   5.984  0.00  0.00     0.044 A 
ATOM     11  S   UNL d   1      35.236  44.090   6.725  0.00  0.00    -0.075 SA
ATOM     12  C   UNL d   1      34.937  43.135   8.201  0.00  0.00     0.089 A 
ATOM     13  C   UNL d   1      33.648  43.464   8.593  0.00  0.00     0.051 A 
ATOM     14  C   UNL d   1      33.298  42.753   9.773  0.00  0.00     0.131 A 
ATOM     15  N   UNL d   1      32.076  42.858  10.423  0.00  0.00    -0.082 NA
ATOM     16  N   UNL d   1      34.201  41.901  10.332  0.00  0.00    -0.340 N 
ATOM     17  HN  UNL d   1      33.916  41.408  11.178  1.00  0.00     0.167 HD
ATOM     18  C   UNL d   1      35.424  41.658   9.868  0.00  0.00     0.182 A 
ATOM     19  N   UNL d   1      35.780  42.330   8.737  0.00  0.00    -0.346 N 
ATOM     20  HN  UNL d   1      36.702  42.193   8.322  1.00  0.00     0.167 HD
ENDROOT
BRANCH   1  21
ATOM     21  N   UNL d   1      27.651  46.353   8.594  0.00  0.00    -0.309 N 
ATOM     22  C   UNL d   1      27.215  47.413   7.744  0.00  0.00     0.325 C 
ATOM     23  N   UNL d   1      25.862  47.854   7.938  0.00  0.00    -0.309 N 
ATOM     24  O   UNL d   1      27.970  47.927   6.878  0.00  0.00    -0.247 OA
ATOM     25  HN  UNL d   1      25.260  47.374   8.607  1.00  0.00     0.170 HD
ATOM     26  HN  UNL d   1      27.032  45.969   9.308  1.00  0.00     0.170 HD
BRANCH  23  27
ATOM     27  C   UNL d   1      25.360  48.962   7.199  0.00  0.00     0.036 A 
ATOM     28  C   UNL d   1      24.138  48.809   6.583  0.00  0.00     0.029 A 
ATOM     29  C   UNL d   1      23.646  49.879   5.865  0.00  0.00     0.003 A 
ATOM     30  C   UNL d   1      24.356  51.059   5.771  0.00  0.00     0.007 A 
ATOM     31  C   UNL d   1      25.576  51.168   6.405  0.00  0.00    -0.056 A 
ATOM     32  C   UNL d   1      26.105  50.124   7.131  0.00  0.00     0.036 A 
BRANCH  31  33
ATOM     33  C   UNL d   1      26.292  52.480   6.257  0.00  0.00     0.034 C 
ATOM     34  C   UNL d   1      27.166  52.748   7.460  0.00  0.00     0.010 C 
ENDBRANCH  31  33
ENDBRANCH  23  27
ENDBRANCH   1  21
TORSDOF 3
ENDMDL
MODEL 2
REMARK VINA RESULT:      -9.4      2.474      4.214
REMARK  3 active torsions:
REMARK  status: ('A' for Active; 'I' for Inactive)
REMARK    1  A    between atoms: C_2  and  C_3 
REMARK    2  A    between atoms: C_7  and  N_8 
REMARK       I    between atoms: N_8  and  C_10 
REMARK       I    between atoms: C_10  and  N_12 
REMARK    3  A    between atoms: N_12  and  C_14 
ROOT
ATOM      1  C   UNL d   1      27.982  48.704   7.179  0.00  0.00     0.036 A 
ATOM      2  C   UNL d   1      27.735  47.700   8.064  0.00  0.00     0.037 A 
ATOM      3  C   UNL d   1      28.629  46.643   8.308  0.00  0.00    -0.044 A 
ATOM      4  C   UNL d   1      29.819  46.623   7.614  0.00  0.00    -0.017 A 
ATOM      5  C   UNL d   1      30.029  47.649   6.736  0.00  0.00     0.015 A 
ATOM      6  C   UNL d   1      29.173  48.681   6.488  0.00  0.00     0.030 A 
ATOM      7  C   UNL d   1      30.812  45.528   7.828  0.00  0.00     0.004 A 
ATOM      8  C   UNL d   1      30.377  44.607   8.764  0.00  0.00    -0.003 A 
ATOM      9  C   UNL d   1      29.106  44.593   9.530  0.00  0.00     0.051 A 
ATOM     10  C   UNL d   1      28.186  45.665   9.290  0.00  0.00     0.044 A 
ATOM     11  S   UNL d   1      31.737  43.379   8.855  0.00  0.00    -0.075 SA
ATOM     12  C   UNL d   1      32.743  44.214   7.644  0.00  0.00     0.089 A 
ATOM     13  C   UNL d   1      32.007  45.328   7.264  0.00  0.00     0.051 A 
ATOM     14  C   UNL d   1      32.720  46.078   6.290  0.00  0.00     0.131 A 
ATOM     15  N   UNL d   1      32.259  47.249   5.704  0.00  0.00    -0.082 NA
ATOM     16  N   UNL d   1      33.944  45.646   5.879  0.00  0.00    -0.340 N 
ATOM     17  HN  UNL d   1      34.427  46.209   5.178  1.00  0.00     0.167 HD
ATOM     18  C   UNL d   1      34.564  44.551   6.313  0.00  0.00     0.182 A 
ATOM     19  N   UNL d   1      33.898  43.817   7.248  0.00  0.00    -0.346 N 
ATOM     20  HN  UNL d   1      34.311  42.966   7.629  1.00  0.00     0.167 HD
ENDROOT
BRANCH   1  21
ATOM     21  N   UNL d   1      27.035  49.745   6.979  0.00  0.00    -0.309 N 
ATOM     22  C   UNL d   1      25.674  49.391   6.743  0.00  0.00     0.325 C 
ATOM     23  N   UNL d   1      24.760  50.487   6.589  0.00  0.00    -0.309 N 
ATOM     24  O   UNL d   1      25.299  48.191   6.675  0.00  0.00    -0.247 OA
ATOM     25  HN  UNL d   1      25.088  51.446   6.711  1.00  0.00     0.170 HD
ATOM     26  HN  UNL d   1      27.323  50.723   7.003  1.00  0.00     0.170 HD
BRANCH  23  27
ATOM     27  C   UNL d   1      23.396  50.240   6.266  0.00  0.00     0.036 A 
ATOM     28  C   UNL d   1      23.058  50.200   4.932  0.00  0.00     0.029 A 
ATOM     29  C   UNL d   1      21.738  49.960   4.614  0.00  0.00     0.003 A 
ATOM     30  C   UNL d   1      20.793  49.766   5.601  0.00  0.00     0.007 A 
ATOM     31  C   UNL d   1      21.176  49.814   6.925  0.00  0.00    -0.056 A 
ATOM     32  C   UNL d   1      22.483  50.052   7.287  0.00  0.00     0.036 A 
BRANCH  31  33
ATOM     33  C   UNL d   1      20.093  49.596   7.943  0.00  0.00     0.034 C 
ATOM     34  C   UNL d   1      20.062  48.152   8.386  0.00  0.00     0.010 C 
ENDBRANCH  31  33
ENDBRANCH  23  27
ENDBRANCH   1  21
TORSDOF 3
ENDMDL
MODEL 3
REMARK VINA RESULT:      -9.3      2.640      4.455
REMARK  3 active torsions:
REMARK  status: ('A' for Active; 'I' for Inactive)
REMARK    1  A    between atoms: C_2  and  C_3 
REMARK    2  A    between atoms: C_7  and  N_8 
REMARK       I    between atoms: N_8  and  C_10 
REMARK       I    between atoms: C_10  and  N_12 
REMARK    3  A    between atoms: N_12  and  C_14 
ROOT
ATOM      1  C   UNL d   1      27.593  48.667   6.929  0.00  0.00     0.036 A 
ATOM      2  C   UNL d   1      27.393  47.672   7.835  0.00  0.00     0.037 A 
ATOM      3  C   UNL d   1      28.348  46.683   8.126  0.00  0.00    -0.044 A 
ATOM      4  C   UNL d   1      29.552  46.724   7.458  0.00  0.00    -0.017 A 
ATOM      5  C   UNL d   1      29.713  47.739   6.556  0.00  0.00     0.015 A 
ATOM      6  C   UNL d   1      28.797  48.705   6.263  0.00  0.00     0.030 A 
ATOM      7  C   UNL d   1      30.610  45.703   7.722  0.00  0.00     0.004 A 
ATOM      8  C   UNL d   1      30.215  44.780   8.673  0.00  0.00    -0.003 A 
ATOM      9  C   UNL d   1      28.932  44.702   9.414  0.00  0.00     0.051 A 
ATOM     10  C   UNL d   1      27.949  45.704   9.126  0.00  0.00     0.044 A 
ATOM     11  S   UNL d   1      31.651  43.648   8.826  0.00  0.00    -0.075 SA
ATOM     12  C   UNL d   1      32.626  44.516   7.612  0.00  0.00     0.089 A 
ATOM     13  C   UNL d   1      31.828  45.568   7.187  0.00  0.00     0.051 A 
ATOM     14  C   UNL d   1      32.511  46.338   6.208  0.00  0.00     0.131 A 
ATOM     15  N   UNL d   1      31.987  47.460   5.581  0.00  0.00    -0.082 NA
ATOM     16  N   UNL d   1      33.769  45.978   5.833  0.00  0.00    -0.340 N 
ATOM     17  HN  UNL d   1      34.229  46.553   5.127  1.00  0.00     0.167 HD
ATOM     18  C   UNL d   1      34.450  44.938   6.310  0.00  0.00     0.182 A 
ATOM     19  N   UNL d   1      33.813  44.186   7.251  0.00  0.00    -0.346 N 
ATOM     20  HN  UNL d   1      34.272  43.374   7.663  1.00  0.00     0.167 HD
ENDROOT
BRANCH   1  21
ATOM     21  N   UNL d   1      26.584  49.637   6.682  0.00  0.00    -0.309 N 
ATOM     22  C   UNL d   1      26.907  51.016   6.856  0.00  0.00     0.325 C 
ATOM     23  N   UNL d   1      25.858  51.948   6.553  0.00  0.00    -0.309 N 
ATOM     24  O   UNL d   1      28.043  51.389   7.250  0.00  0.00    -0.247 OA
ATOM     25  HN  UNL d   1      24.970  51.612   6.177  1.00  0.00     0.170 HD
ATOM     26  HN  UNL d   1      25.649  49.354   6.388  1.00  0.00     0.170 HD
BRANCH  23  27
ATOM     27  C   UNL d   1      26.053  53.340   6.775  0.00  0.00     0.036 A 
ATOM     28  C   UNL d   1      26.322  54.124   5.676  0.00  0.00     0.029 A 
ATOM     29  C   UNL d   1      26.512  55.474   5.885  0.00  0.00     0.003 A 
ATOM     30  C   UNL d   1      26.433  56.015   7.152  0.00  0.00     0.007 A 
ATOM     31  C   UNL d   1      26.161  55.192   8.225  0.00  0.00    -0.056 A 
ATOM     32  C   UNL d   1      25.965  53.839   8.061  0.00  0.00     0.036 A 
BRANCH  31  33
ATOM     33  C   UNL d   1      26.091  55.850   9.573  0.00  0.00     0.034 C 
ATOM     34  C   UNL d   1      27.379  56.582   9.875  0.00  0.00     0.010 C 
ENDBRANCH  31  33
ENDBRANCH  23  27
ENDBRANCH   1  21
TORSDOF 3
ENDMDL
MODEL 4
REMARK VINA RESULT:      -9.2      2.395      3.531
REMARK  3 active torsions:
REMARK  status: ('A' for Active; 'I' for Inactive)
REMARK    1  A    between atoms: C_2  and  C_3 
REMARK    2  A    between atoms: C_7  and  N_8 
REMARK       I    between atoms: N_8  and  C_10 
REMARK       I    between atoms: C_10  and  N_12 
REMARK    3  A    between atoms: N_12  and  C_14 
ROOT
ATOM      1  C   UNL d   1      29.662  48.065   6.630  0.00  0.00     0.036 A 
ATOM      2  C   UNL d   1      29.278  46.831   7.057  0.00  0.00     0.037 A 
ATOM      3  C   UNL d   1      30.136  45.937   7.720  0.00  0.00    -0.044 A 
ATOM      4  C   UNL d   1      31.436  46.334   7.952  0.00  0.00    -0.017 A 
ATOM      5  C   UNL d   1      31.780  47.579   7.509  0.00  0.00     0.015 A 
ATOM      6  C   UNL d   1      30.961  48.457   6.863  0.00  0.00     0.030 A 
ATOM      7  C   UNL d   1      32.398  45.431   8.654  0.00  0.00     0.004 A 
ATOM      8  C   UNL d   1      31.817  44.226   9.006  0.00  0.00    -0.003 A 
ATOM      9  C   UNL d   1      30.426  43.763   8.775  0.00  0.00     0.051 A 
ATOM     10  C   UNL d   1      29.542  44.664   8.099  0.00  0.00     0.044 A 
ATOM     11  S   UNL d   1      33.167  43.302   9.837  0.00  0.00    -0.075 SA
ATOM     12  C   UNL d   1      34.361  44.610   9.632  0.00  0.00     0.089 A 
ATOM     13  C   UNL d   1      33.682  45.623   8.971  0.00  0.00     0.051 A 
ATOM     14  C   UNL d   1      34.545  46.730   8.751  0.00  0.00     0.131 A 
ATOM     15  N   UNL d   1      34.174  47.906   8.114  0.00  0.00    -0.082 NA
ATOM     16  N   UNL d   1      35.835  46.667   9.183  0.00  0.00    -0.340 N 
ATOM     17  HN  UNL d   1      36.426  47.480   9.008  1.00  0.00     0.167 HD
ATOM     18  C   UNL d   1      36.390  45.634   9.813  0.00  0.00     0.182 A 
ATOM     19  N   UNL d   1      35.579  44.562  10.034  0.00  0.00    -0.346 N 
ATOM     20  HN  UNL d   1      35.934  43.734  10.513  1.00  0.00     0.167 HD
ENDROOT
BRANCH   1  21
ATOM     21  N   UNL d   1      28.743  48.921   5.964  0.00  0.00    -0.309 N 
ATOM     22  C   UNL d   1      27.431  49.064   6.506  0.00  0.00     0.325 C 
ATOM     23  N   UNL d   1      26.563  49.972   5.810  0.00  0.00    -0.309 N 
ATOM     24  O   UNL d   1      27.060  48.433   7.530  0.00  0.00    -0.247 OA
ATOM     25  HN  UNL d   1      26.917  50.513   5.021  1.00  0.00     0.170 HD
ATOM     26  HN  UNL d   1      29.014  49.420   5.118  1.00  0.00     0.170 HD
BRANCH  23  27
ATOM     27  C   UNL d   1      25.208  50.121   6.221  0.00  0.00     0.036 A 
ATOM     28  C   UNL d   1      24.691  51.397   6.245  0.00  0.00     0.029 A 
ATOM     29  C   UNL d   1      23.378  51.547   6.642  0.00  0.00     0.003 A 
ATOM     30  C   UNL d   1      22.615  50.454   7.001  0.00  0.00     0.007 A 
ATOM     31  C   UNL d   1      23.175  49.194   6.961  0.00  0.00    -0.056 A 
ATOM     32  C   UNL d   1      24.480  48.999   6.572  0.00  0.00     0.036 A 
BRANCH  31  33
ATOM     33  C   UNL d   1      22.284  48.054   7.367  0.00  0.00     0.034 C 
ATOM     34  C   UNL d   1      20.836  48.483   7.366  0.00  0.00     0.010 C 
ENDBRANCH  31  33
ENDBRANCH  23  27
ENDBRANCH   1  21
TORSDOF 3
ENDMDL
MODEL 5
REMARK VINA RESULT:      -9.2      2.092      3.496
REMARK  3 active torsions:
REMARK  status: ('A' for Active; 'I' for Inactive)
REMARK    1  A    between atoms: C_2  and  C_3 
REMARK    2  A    between atoms: C_7  and  N_8 
REMARK       I    between atoms: N_8  and  C_10 
REMARK       I    between atoms: C_10  and  N_12 
REMARK    3  A    between atoms: N_12  and  C_14 
ROOT
ATOM      1  C   UNL d   1      28.746  47.622   8.241  0.00  0.00     0.036 A 
ATOM      2  C   UNL d   1      28.700  46.404   8.844  0.00  0.00     0.037 A 
ATOM      3  C   UNL d   1      29.724  45.446   8.740  0.00  0.00    -0.044 A 
ATOM      4  C   UNL d   1      30.835  45.760   7.986  0.00  0.00    -0.017 A 
ATOM      5  C   UNL d   1      30.841  46.993   7.397  0.00  0.00     0.015 A 
ATOM      6  C   UNL d   1      29.856  47.932   7.488  0.00  0.00     0.030 A 
ATOM      7  C   UNL d   1      31.958  44.788   7.836  0.00  0.00     0.004 A 
ATOM      8  C   UNL d   1      31.722  43.611   8.524  0.00  0.00    -0.003 A 
ATOM      9  C   UNL d   1      30.544  43.236   9.344  0.00  0.00     0.051 A 
ATOM     10  C   UNL d   1      29.493  44.202   9.458  0.00  0.00     0.044 A 
ATOM     11  S   UNL d   1      33.211  42.591   8.196  0.00  0.00    -0.075 SA
ATOM     12  C   UNL d   1      33.993  43.830   7.181  0.00  0.00     0.089 A 
ATOM     13  C   UNL d   1      33.106  44.896   7.159  0.00  0.00     0.051 A 
ATOM     14  C   UNL d   1      33.630  45.955   6.370  0.00  0.00     0.131 A 
ATOM     15  N   UNL d   1      32.987  47.165   6.146  0.00  0.00    -0.082 NA
ATOM     16  N   UNL d   1      34.847  45.807   5.777  0.00  0.00    -0.340 N 
ATOM     17  HN  UNL d   1      35.192  46.588   5.218  1.00  0.00     0.167 HD
ATOM     18  C   UNL d   1      35.623  44.730   5.865  0.00  0.00     0.182 A 
ATOM     19  N   UNL d   1      35.139  43.702   6.617  0.00  0.00    -0.346 N 
ATOM     20  HN  UNL d   1      35.679  42.844   6.731  1.00  0.00     0.167 HD
ENDROOT
BRANCH   1  21
ATOM     21  N   UNL d   1      27.675  48.545   8.387  0.00  0.00    -0.309 N 
ATOM     22  C   UNL d   1      27.019  49.019   7.213  0.00  0.00     0.325 C 
ATOM     23  N   UNL d   1      25.920  49.918   7.429  0.00  0.00    -0.309 N 
ATOM     24  O   UNL d   1      27.382  48.669   6.059  0.00  0.00    -0.247 OA
ATOM     25  HN  UNL d   1      25.615  50.131   8.379  1.00  0.00     0.170 HD
ATOM     26  HN  UNL d   1      27.383  48.862   9.311  1.00  0.00     0.170 HD
BRANCH  23  27
ATOM     27  C   UNL d   1      25.254  50.512   6.320  0.00  0.00     0.036 A 
ATOM     28  C   UNL d   1      25.806  51.656   5.791  0.00  0.00     0.029 A 
ATOM     29  C   UNL d   1      25.165  52.236   4.716  0.00  0.00     0.003 A 
ATOM     30  C   UNL d   1      24.013  51.684   4.193  0.00  0.00     0.007 A 
ATOM     31  C   UNL d   1      23.496  50.536   4.755  0.00  0.00    -0.056 A 
ATOM     32  C   UNL d   1      24.103  49.925   5.829  0.00  0.00     0.036 A 
BRANCH  31  33
ATOM     33  C   UNL d   1      22.240  49.994   4.134  0.00  0.00     0.034 C 
ATOM     34  C   UNL d   1      21.450  51.102   3.477  0.00  0.00     0.010 C 
ENDBRANCH  31  33
ENDBRANCH  23  27
ENDBRANCH   1  21
TORSDOF 3
ENDMDL
MODEL 6
REMARK VINA RESULT:      -9.0      2.270      3.114
REMARK  3 active torsions:
REMARK  status: ('A' for Active; 'I' for Inactive)
REMARK    1  A    between atoms: C_2  and  C_3 
REMARK    2  A    between atoms: C_7  and  N_8 
REMARK       I    between atoms: N_8  and  C_10 
REMARK       I    between atoms: C_10  and  N_12 
REMARK    3  A    between atoms: N_12  and  C_14 
ROOT
ATOM      1  C   UNL d   1      29.292  46.908   8.450  0.00  0.00     0.036 A 
ATOM      2  C   UNL d   1      29.614  45.587   8.503  0.00  0.00     0.037 A 
ATOM      3  C   UNL d   1      30.902  45.090   8.240  0.00  0.00    -0.044 A 
ATOM      4  C   UNL d   1      31.893  45.991   7.912  0.00  0.00    -0.017 A 
ATOM      5  C   UNL d   1      31.528  47.308   7.870  0.00  0.00     0.015 A 
ATOM      6  C   UNL d   1      30.284  47.805   8.122  0.00  0.00     0.030 A 
ATOM      7  C   UNL d   1      33.283  45.529   7.622  0.00  0.00     0.004 A 
ATOM      8  C   UNL d   1      33.406  44.155   7.728  0.00  0.00    -0.003 A 
ATOM      9  C   UNL d   1      32.368  43.154   8.078  0.00  0.00     0.051 A 
ATOM     10  C   UNL d   1      31.050  43.647   8.348  0.00  0.00     0.044 A 
ATOM     11  S   UNL d   1      35.168  43.829   7.334  0.00  0.00    -0.075 SA
ATOM     12  C   UNL d   1      35.559  45.548   7.069  0.00  0.00     0.089 A 
ATOM     13  C   UNL d   1      34.371  46.230   7.289  0.00  0.00     0.051 A 
ATOM     14  C   UNL d   1      34.565  47.625   7.105  0.00  0.00     0.131 A 
ATOM     15  N   UNL d   1      33.573  48.585   7.250  0.00  0.00    -0.082 NA
ATOM     16  N   UNL d   1      35.798  48.089   6.761  0.00  0.00    -0.340 N 
ATOM     17  HN  UNL d   1      35.901  49.096   6.636  1.00  0.00     0.167 HD
ATOM     18  C   UNL d   1      36.881  47.338   6.573  0.00  0.00     0.182 A 
ATOM     19  N   UNL d   1      36.717  45.996   6.745  0.00  0.00    -0.346 N 
ATOM     20  HN  UNL d   1      37.503  45.358   6.619  1.00  0.00     0.167 HD
ENDROOT
BRANCH   1  21
ATOM     21  N   UNL d   1      27.968  47.343   8.728  0.00  0.00    -0.309 N 
ATOM     22  C   UNL d   1      27.196  47.899   7.665  0.00  0.00     0.325 C 
ATOM     23  N   UNL d   1      25.854  48.283   8.000  0.00  0.00    -0.309 N 
ATOM     24  O   UNL d   1      27.665  48.041   6.505  0.00  0.00    -0.247 OA
ATOM     25  HN  UNL d   1      25.488  48.096   8.934  1.00  0.00     0.170 HD
ATOM     26  HN  UNL d   1      27.578  47.262   9.667  1.00  0.00     0.170 HD
BRANCH  23  27
ATOM     27  C   UNL d   1      25.031  48.924   7.031  0.00  0.00     0.036 A 
ATOM     28  C   UNL d   1      23.863  48.290   6.673  0.00  0.00     0.029 A 
ATOM     29  C   UNL d   1      23.062  48.907   5.735  0.00  0.00     0.003 A 
ATOM     30  C   UNL d   1      23.423  50.117   5.179  0.00  0.00     0.007 A 
ATOM     31  C   UNL d   1      24.602  50.717   5.567  0.00  0.00    -0.056 A 
ATOM     32  C   UNL d   1      25.432  50.136   6.500  0.00  0.00     0.036 A 
BRANCH  31  33
ATOM     33  C   UNL d   1      24.929  52.032   4.918  0.00  0.00     0.034 C 
ATOM     34  C   UNL d   1      26.354  52.037   4.414  0.00  0.00     0.010 C 
ENDBRANCH  31  33
ENDBRANCH  23  27
ENDBRANCH   1  21
TORSDOF 3
ENDMDL
MODEL 7
REMARK VINA RESULT:      -9.0      1.916      3.147
REMARK  3 active torsions:
REMARK  status: ('A' for Active; 'I' for Inactive)
REMARK    1  A    between atoms: C_2  and  C_3 
REMARK    2  A    between atoms: C_7  and  N_8 
REMARK       I    between atoms: N_8  and  C_10 
REMARK       I    between atoms: C_10  and  N_12 
REMARK    3  A    between atoms: N_12  and  C_14 
ROOT
ATOM      1  C   UNL d   1      27.923  47.104   8.011  0.00  0.00     0.036 A 
ATOM      2  C   UNL d   1      28.015  46.020   8.829  0.00  0.00     0.037 A 
ATOM      3  C   UNL d   1      29.144  45.185   8.887  0.00  0.00    -0.044 A 
ATOM      4  C   UNL d   1      30.216  45.481   8.072  0.00  0.00    -0.017 A 
ATOM      5  C   UNL d   1      30.083  46.577   7.267  0.00  0.00     0.015 A 
ATOM      6  C   UNL d   1      28.995  47.396   7.198  0.00  0.00     0.030 A 
ATOM      7  C   UNL d   1      31.446  44.634   8.087  0.00  0.00     0.004 A 
ATOM      8  C   UNL d   1      31.343  43.584   8.982  0.00  0.00    -0.003 A 
ATOM      9  C   UNL d   1      30.211  43.233   9.874  0.00  0.00     0.051 A 
ATOM     10  C   UNL d   1      29.053  44.076   9.824  0.00  0.00     0.044 A 
ATOM     11  S   UNL d   1      32.943  42.700   8.825  0.00  0.00    -0.075 SA
ATOM     12  C   UNL d   1      33.583  43.814   7.589  0.00  0.00     0.089 A 
ATOM     13  C   UNL d   1      32.577  44.748   7.385  0.00  0.00     0.051 A 
ATOM     14  C   UNL d   1      32.981  45.697   6.407  0.00  0.00     0.131 A 
ATOM     15  N   UNL d   1      32.203  46.762   5.974  0.00  0.00    -0.082 NA
ATOM     16  N   UNL d   1      34.211  45.584   5.834  0.00  0.00    -0.340 N 
ATOM     17  HN  UNL d   1      34.467  46.283   5.136  1.00  0.00     0.167 HD
ATOM     18  C   UNL d   1      35.106  44.639   6.107  0.00  0.00     0.182 A 
ATOM     19  N   UNL d   1      34.739  43.717   7.042  0.00  0.00    -0.346 N 
ATOM     20  HN  UNL d   1      35.375  42.963   7.303  1.00  0.00     0.167 HD
ENDROOT
BRANCH   1  21
ATOM     21  N   UNL d   1      26.751  47.908   8.001  0.00  0.00    -0.309 N 
ATOM     22  C   UNL d   1      26.637  48.935   7.018  0.00  0.00     0.325 C 
ATOM     23  N   UNL d   1      25.414  49.686   7.035  0.00  0.00    -0.309 N 
ATOM     24  O   UNL d   1      27.554  49.166   6.187  0.00  0.00    -0.247 OA
ATOM     25  HN  UNL d   1      24.668  49.430   7.683  1.00  0.00     0.170 HD
ATOM     26  HN  UNL d   1      26.008  47.755   8.683  1.00  0.00     0.170 HD
BRANCH  23  27
ATOM     27  C   UNL d   1      25.238  50.786   6.150  0.00  0.00     0.036 A 
ATOM     28  C   UNL d   1      24.539  50.558   4.987  0.00  0.00     0.029 A 
ATOM     29  C   UNL d   1      24.366  51.621   4.126  0.00  0.00     0.003 A 
ATOM     30  C   UNL d   1      24.877  52.868   4.424  0.00  0.00     0.007 A 
ATOM     31  C   UNL d   1      25.571  53.051   5.602  0.00  0.00    -0.056 A 
ATOM     32  C   UNL d   1      25.767  52.018   6.489  0.00  0.00     0.036 A 
BRANCH  31  33
ATOM     33  C   UNL d   1      26.099  54.435   5.858  0.00  0.00     0.034 C 
ATOM     34  C   UNL d   1      26.500  54.591   7.306  0.00  0.00     0.010 C 
ENDBRANCH  31  33
ENDBRANCH  23  27
ENDBRANCH   1  21
TORSDOF 3
ENDMDL
MODEL 8
REMARK VINA RESULT:      -8.8      4.810      9.567
REMARK  3 active torsions:
REMARK  status: ('A' for Active; 'I' for Inactive)
REMARK    1  A    between atoms: C_2  and  C_3 
REMARK    2  A    between atoms: C_7  and  N_8 
REMARK       I    between atoms: N_8  and  C_10 
REMARK       I    between atoms: C_10  and  N_12 
REMARK    3  A    between atoms: N_12  and  C_14 
ROOT
ATOM      1  C   UNL d   1      33.439  46.865   5.697  0.00  0.00     0.036 A 
ATOM      2  C   UNL d   1      33.098  45.809   6.484  0.00  0.00     0.037 A 
ATOM      3  C   UNL d   1      31.832  45.658   7.077  0.00  0.00    -0.044 A 
ATOM      4  C   UNL d   1      30.885  46.633   6.847  0.00  0.00    -0.017 A 
ATOM      5  C   UNL d   1      31.268  47.676   6.052  0.00  0.00     0.015 A 
ATOM      6  C   UNL d   1      32.490  47.837   5.470  0.00  0.00     0.030 A 
ATOM      7  C   UNL d   1      29.521  46.532   7.447  0.00  0.00     0.004 A 
ATOM      8  C   UNL d   1      29.373  45.389   8.211  0.00  0.00    -0.003 A 
ATOM      9  C   UNL d   1      30.365  44.318   8.482  0.00  0.00     0.051 A 
ATOM     10  C   UNL d   1      31.659  44.460   7.884  0.00  0.00     0.044 A 
ATOM     11  S   UNL d   1      27.650  45.482   8.834  0.00  0.00    -0.075 SA
ATOM     12  C   UNL d   1      27.304  47.028   8.015  0.00  0.00     0.089 A 
ATOM     13  C   UNL d   1      28.475  47.358   7.349  0.00  0.00     0.051 A 
ATOM     14  C   UNL d   1      28.314  48.586   6.653  0.00  0.00     0.131 A 
ATOM     15  N   UNL d   1      29.300  49.194   5.889  0.00  0.00    -0.082 NA
ATOM     16  N   UNL d   1      27.122  49.240   6.719  0.00  0.00    -0.340 N 
ATOM     17  HN  UNL d   1      27.042  50.119   6.208  1.00  0.00     0.167 HD
ATOM     18  C   UNL d   1      26.052  48.830   7.395  0.00  0.00     0.182 A 
ATOM     19  N   UNL d   1      26.184  47.653   8.070  0.00  0.00    -0.346 N 
ATOM     20  HN  UNL d   1      25.406  47.275   8.610  1.00  0.00     0.167 HD
ENDROOT
BRANCH   1  21
ATOM     21  N   UNL d   1      34.737  46.957   5.128  0.00  0.00    -0.309 N 
ATOM     22  C   UNL d   1      35.761  47.618   5.868  0.00  0.00     0.325 C 
ATOM     23  N   UNL d   1      37.060  47.643   5.257  0.00  0.00    -0.309 N 
ATOM     24  O   UNL d   1      35.537  48.147   6.989  0.00  0.00    -0.247 OA
ATOM     25  HN  UNL d   1      37.219  47.151   4.377  1.00  0.00     0.170 HD
ATOM     26  HN  UNL d   1      34.933  46.559   4.209  1.00  0.00     0.170 HD
BRANCH  23  27
ATOM     27  C   UNL d   1      38.128  48.351   5.877  0.00  0.00     0.036 A 
ATOM     28  C   UNL d   1      39.084  47.609   6.531  0.00  0.00     0.029 A 
ATOM     29  C   UNL d   1      40.121  48.290   7.133  0.00  0.00     0.003 A 
ATOM     30  C   UNL d   1      40.194  49.667   7.077  0.00  0.00     0.007 A 
ATOM     31  C   UNL d   1      39.214  50.371   6.409  0.00  0.00    -0.056 A 
ATOM     32  C   UNL d   1      38.161  49.731   5.796  0.00  0.00     0.036 A 
BRANCH  31  33
ATOM     33  C   UNL d   1      39.358  51.866   6.392  0.00  0.00     0.034 C 
ATOM     34  C   UNL d   1      38.641  52.484   7.569  0.00  0.00     0.010 C 
ENDBRANCH  31  33
ENDBRANCH  23  27
ENDBRANCH   1  21
TORSDOF 3
ENDMDL
MODEL 9
REMARK VINA RESULT:      -8.7      2.228      3.637
REMARK  3 active torsions:
REMARK  status: ('A' for Active; 'I' for Inactive)
REMARK    1  A    between atoms: C_2  and  C_3 
REMARK    2  A    between atoms: C_7  and  N_8 
REMARK       I    between atoms: N_8  and  C_10 
REMARK       I    between atoms: C_10  and  N_12 
REMARK    3  A    between atoms: N_12  and  C_14 
ROOT
ATOM      1  C   UNL d   1      28.645  47.558   7.253  0.00  0.00     0.036 A 
ATOM      2  C   UNL d   1      28.531  46.513   8.117  0.00  0.00     0.037 A 
ATOM      3  C   UNL d   1      29.550  45.570   8.335  0.00  0.00    -0.044 A 
ATOM      4  C   UNL d   1      30.730  45.713   7.636  0.00  0.00    -0.017 A 
ATOM      5  C   UNL d   1      30.804  46.775   6.780  0.00  0.00     0.015 A 
ATOM      6  C   UNL d   1      29.825  47.697   6.556  0.00  0.00     0.030 A 
ATOM      7  C   UNL d   1      31.853  44.746   7.823  0.00  0.00     0.004 A 
ATOM      8  C   UNL d   1      31.541  43.759   8.741  0.00  0.00    -0.003 A 
ATOM      9  C   UNL d   1      30.287  43.571   9.512  0.00  0.00     0.051 A 
ATOM     10  C   UNL d   1      29.239  44.524   9.298  0.00  0.00     0.044 A 
ATOM     11  S   UNL d   1      33.044  42.709   8.801  0.00  0.00    -0.075 SA
ATOM     12  C   UNL d   1      33.930  43.687   7.604  0.00  0.00     0.089 A 
ATOM     13  C   UNL d   1      33.060  44.708   7.251  0.00  0.00     0.051 A 
ATOM     14  C   UNL d   1      33.667  45.560   6.290  0.00  0.00     0.131 A 
ATOM     15  N   UNL d   1      33.060  46.677   5.731  0.00  0.00    -0.082 NA
ATOM     16  N   UNL d   1      34.933  45.293   5.864  0.00  0.00    -0.340 N 
ATOM     17  HN  UNL d   1      35.337  45.926   5.174  1.00  0.00     0.167 HD
ATOM     18  C   UNL d   1      35.686  44.275   6.273  0.00  0.00     0.182 A 
ATOM     19  N   UNL d   1      35.123  43.445   7.195  0.00  0.00    -0.346 N 
ATOM     20  HN  UNL d   1      35.641  42.644   7.556  1.00  0.00     0.167 HD
ENDROOT
BRANCH   1  21
ATOM     21  N   UNL d   1      27.575  48.476   7.079  0.00  0.00    -0.309 N 
ATOM     22  C   UNL d   1      27.886  49.849   6.847  0.00  0.00     0.325 C 
ATOM     23  N   UNL d   1      26.762  50.719   6.640  0.00  0.00    -0.309 N 
ATOM     24  O   UNL d   1      29.072  50.269   6.825  0.00  0.00    -0.247 OA
ATOM     25  HN  UNL d   1      25.818  50.333   6.604  1.00  0.00     0.170 HD
ATOM     26  HN  UNL d   1      26.605  48.161   7.120  1.00  0.00     0.170 HD
BRANCH  23  27
ATOM     27  C   UNL d   1      26.963  52.119   6.485  0.00  0.00     0.036 A 
ATOM     28  C   UNL d   1      27.173  52.590   5.209  0.00  0.00     0.029 A 
ATOM     29  C   UNL d   1      27.367  53.947   5.052  0.00  0.00     0.003 A 
ATOM     30  C   UNL d   1      27.350  54.798   6.139  0.00  0.00     0.007 A 
ATOM     31  C   UNL d   1      27.135  54.281   7.400  0.00  0.00    -0.056 A 
ATOM     32  C   UNL d   1      26.937  52.934   7.601  0.00  0.00     0.036 A 
BRANCH  31  33
ATOM     33  C   UNL d   1      27.131  55.267   8.534  0.00  0.00     0.034 C 
ATOM     34  C   UNL d   1      25.749  55.383   9.133  0.00  0.00     0.010 C 
ENDBRANCH  31  33
ENDBRANCH  23  27
ENDBRANCH   1  21
TORSDOF 3
ENDMDL
