MODEL 1
REMARK VINA RESULT:      -7.9      0.000      0.000
REMARK  5 active torsions:
REMARK  status: ('A' for Active; 'I' for Inactive)
REMARK       I    between atoms: N_2  and  C_4 
REMARK    1  A    between atoms: C_4  and  C_6 
REMARK    2  A    between atoms: C_10  and  N_11 
REMARK       I    between atoms: N_11  and  C_13 
REMARK       I    between atoms: C_13  and  N_15 
REMARK    3  A    between atoms: N_15  and  C_17 
REMARK    4  A    between atoms: C_20  and  C_21 
REMARK    5  A    between atoms: C_26  and  N_27 
ROOT
ATOM      1  C   UNL d   1      28.615  47.686   7.289  0.00  0.00     0.108 A 
ATOM      2  C   UNL d   1      29.672  47.293   6.468  0.00  0.00     0.049 A 
ATOM      3  C   UNL d   1      30.690  46.474   6.915  0.00  0.00     0.017 A 
ATOM      4  C   UNL d   1      30.600  46.059   8.242  0.00  0.00    -0.010 A 
ATOM      5  C   UNL d   1      29.529  46.469   9.042  0.00  0.00     0.102 A 
ATOM      6  N   UNL d   1      28.544  47.275   8.574  0.00  0.00    -0.351 N 
ATOM      7  HN  UNL d   1      27.771  47.561   9.174  1.00  0.00     0.166 HD
ENDROOT
BRANCH   1   8
ATOM      8  N   UNL d   1      27.635  48.531   6.698  0.00  0.00    -0.294 N 
ATOM      9  C   UNL d   1      26.280  48.444   7.050  0.00  0.00     0.326 C 
ATOM     10  N   UNL d   1      25.363  49.312   6.370  0.00  0.00    -0.309 N 
ATOM     11  O   UNL d   1      25.913  47.627   7.932  0.00  0.00    -0.247 OA
ATOM     12  HN  UNL d   1      25.695  49.956   5.653  1.00  0.00     0.170 HD
ATOM     13  HN  UNL d   1      27.924  49.217   6.002  1.00  0.00     0.172 HD
BRANCH  10  14
ATOM     14  C   UNL d   1      23.981  49.260   6.710  0.00  0.00     0.037 A 
ATOM     15  C   UNL d   1      23.257  48.086   6.752  0.00  0.00     0.029 A 
ATOM     16  C   UNL d   1      21.916  48.036   7.082  0.00  0.00     0.003 A 
ATOM     17  C   UNL d   1      21.244  49.191   7.388  0.00  0.00     0.017 A 
ATOM     18  C   UNL d   1      21.946  50.379   7.353  0.00  0.00     0.034 A 
ATOM     19  C   UNL d   1      23.281  50.424   7.024  0.00  0.00     0.046 A 
BRANCH  18  20
ATOM     20  C   UNL d   1      21.214  51.598   7.682  0.00  0.00     0.251 C 
ATOM     21  N   UNL d   1      21.693  52.541   8.638  0.00  0.00    -0.361 N 
ATOM     22  C   UNL d   1      20.927  53.779   8.774  0.00  0.00     0.149 C 
ATOM     23  HN  UNL d   1      22.527  52.362   9.197  1.00  0.00     0.162 HD
ATOM     24  O   UNL d   1      20.120  51.831   7.102  0.00  0.00    -0.268 OA
ENDBRANCH  18  20
ENDBRANCH  10  14
ENDBRANCH   1   8
BRANCH   4  25
ATOM     25  C   UNL d   1      31.653  45.202   8.733  0.00  0.00    -0.017 A 
ATOM     26  C   UNL d   1      31.397  43.845   8.825  0.00  0.00    -0.051 A 
ATOM     27  C   UNL d   1      30.067  43.313   8.424  0.00  0.00     0.049 C 
ATOM     28  C   UNL d   1      32.379  42.967   9.293  0.00  0.00     0.010 A 
ATOM     29  C   UNL d   1      33.637  43.439   9.676  0.00  0.00     0.030 A 
ATOM     30  C   UNL d   1      33.888  44.794   9.583  0.00  0.00     0.030 A 
ATOM     31  C   UNL d   1      32.902  45.646   9.117  0.00  0.00     0.042 A 
BRANCH  30  32
ATOM     32  N   UNL d   1      35.141  45.370   9.951  0.00  0.00    -0.390 N 
ATOM     33  C   UNL d   1      36.201  45.589   8.987  0.00  0.00     0.149 C 
ATOM     34  C   UNL d   1      35.327  45.737  11.345  0.00  0.00     0.149 C 
ENDBRANCH  30  32
ENDBRANCH   4  25
TORSDOF 5
ENDMDL
MODEL 2
REMARK VINA RESULT:      -7.7      4.755     12.662
REMARK  5 active torsions:
REMARK  status: ('A' for Active; 'I' for Inactive)
REMARK       I    between atoms: N_2  and  C_4 
REMARK    1  A    between atoms: C_4  and  C_6 
REMARK    2  A    between atoms: C_10  and  N_11 
REMARK       I    between atoms: N_11  and  C_13 
REMARK       I    between atoms: C_13  and  N_15 
REMARK    3  A    between atoms: N_15  and  C_17 
REMARK    4  A    between atoms: C_20  and  C_21 
REMARK    5  A    between atoms: C_26  and  N_27 
ROOT
ATOM      1  C   UNL d   1      33.604  46.677   6.221  0.00  0.00     0.108 A 
ATOM      2  C   UNL d   1      32.590  46.120   5.441  0.00  0.00     0.049 A 
ATOM      3  C   UNL d   1      31.267  46.126   5.835  0.00  0.00     0.017 A 
ATOM      4  C   UNL d   1      30.999  46.726   7.064  0.00  0.00    -0.010 A 
ATOM      5  C   UNL d   1      32.035  47.277   7.824  0.00  0.00     0.102 A 
ATOM      6  N   UNL d   1      33.326  47.254   7.410  0.00  0.00    -0.351 N 
ATOM      7  HN  UNL d   1      34.066  47.663   7.981  1.00  0.00     0.166 HD
ENDROOT
BRANCH   1   8
ATOM      8  N   UNL d   1      34.923  46.601   5.694  0.00  0.00    -0.294 N 
ATOM      9  C   UNL d   1      35.923  45.844   6.320  0.00  0.00     0.326 C 
ATOM     10  N   UNL d   1      37.232  45.862   5.735  0.00  0.00    -0.309 N 
ATOM     11  O   UNL d   1      35.652  45.184   7.356  0.00  0.00    -0.247 OA
ATOM     12  HN  UNL d   1      37.417  46.416   4.900  1.00  0.00     0.170 HD
ATOM     13  HN  UNL d   1      35.147  47.110   4.839  1.00  0.00     0.172 HD
BRANCH  10  14
ATOM     14  C   UNL d   1      38.269  45.095   6.337  0.00  0.00     0.037 A 
ATOM     15  C   UNL d   1      39.229  45.641   7.165  0.00  0.00     0.029 A 
ATOM     16  C   UNL d   1      40.235  44.896   7.749  0.00  0.00     0.003 A 
ATOM     17  C   UNL d   1      40.311  43.547   7.515  0.00  0.00     0.017 A 
ATOM     18  C   UNL d   1      39.363  42.977   6.690  0.00  0.00     0.034 A 
ATOM     19  C   UNL d   1      38.362  43.722   6.111  0.00  0.00     0.046 A 
BRANCH  18  20
ATOM     20  C   UNL d   1      39.460  41.540   6.453  0.00  0.00     0.251 C 
ATOM     21  N   UNL d   1      39.581  40.598   7.516  0.00  0.00    -0.361 N 
ATOM     22  C   UNL d   1      39.538  39.185   7.143  0.00  0.00     0.149 C 
ATOM     23  HN  UNL d   1      39.691  40.895   8.485  1.00  0.00     0.162 HD
ATOM     24  O   UNL d   1      39.436  41.112   5.268  0.00  0.00    -0.268 OA
ENDBRANCH  18  20
ENDBRANCH  10  14
ENDBRANCH   1   8
BRANCH   4  25
ATOM     25  C   UNL d   1      29.622  46.745   7.497  0.00  0.00    -0.017 A 
ATOM     26  C   UNL d   1      29.183  45.719   8.315  0.00  0.00    -0.051 A 
ATOM     27  C   UNL d   1      30.125  44.641   8.721  0.00  0.00     0.049 C 
ATOM     28  C   UNL d   1      27.861  45.684   8.765  0.00  0.00     0.010 A 
ATOM     29  C   UNL d   1      26.955  46.683   8.400  0.00  0.00     0.030 A 
ATOM     30  C   UNL d   1      27.396  47.706   7.582  0.00  0.00     0.030 A 
ATOM     31  C   UNL d   1      28.710  47.720   7.148  0.00  0.00     0.042 A 
BRANCH  30  32
ATOM     32  N   UNL d   1      26.546  48.770   7.156  0.00  0.00    -0.390 N 
ATOM     33  C   UNL d   1      27.070  49.983   6.561  0.00  0.00     0.149 C 
ATOM     34  C   UNL d   1      25.114  48.599   7.338  0.00  0.00     0.149 C 
ENDBRANCH  30  32
ENDBRANCH   4  25
TORSDOF 5
ENDMDL
MODEL 3
REMARK VINA RESULT:      -7.7      2.724      3.736
REMARK  5 active torsions:
REMARK  status: ('A' for Active; 'I' for Inactive)
REMARK       I    between atoms: N_2  and  C_4 
REMARK    1  A    between atoms: C_4  and  C_6 
REMARK    2  A    between atoms: C_10  and  N_11 
REMARK       I    between atoms: N_11  and  C_13 
REMARK       I    between atoms: C_13  and  N_15 
REMARK    3  A    between atoms: N_15  and  C_17 
REMARK    4  A    between atoms: C_20  and  C_21 
REMARK    5  A    between atoms: C_26  and  N_27 
ROOT
ATOM      1  C   UNL d   1      29.582  45.503   8.565  0.00  0.00     0.108 A 
ATOM      2  C   UNL d   1      29.887  44.142   8.524  0.00  0.00     0.049 A 
ATOM      3  C   UNL d   1      31.181  43.679   8.393  0.00  0.00     0.017 A 
ATOM      4  C   UNL d   1      32.172  44.654   8.303  0.00  0.00    -0.010 A 
ATOM      5  C   UNL d   1      31.837  46.011   8.347  0.00  0.00     0.102 A 
ATOM      6  N   UNL d   1      30.556  46.435   8.476  0.00  0.00    -0.351 N 
ATOM      7  HN  UNL d   1      30.334  47.430   8.507  1.00  0.00     0.166 HD
ENDROOT
BRANCH   1   8
ATOM      8  N   UNL d   1      28.207  45.840   8.704  0.00  0.00    -0.294 N 
ATOM      9  C   UNL d   1      27.637  46.908   7.998  0.00  0.00     0.326 C 
ATOM     10  N   UNL d   1      26.251  47.195   8.235  0.00  0.00    -0.309 N 
ATOM     11  O   UNL d   1      28.338  47.574   7.194  0.00  0.00    -0.247 OA
ATOM     12  HN  UNL d   1      25.716  46.640   8.902  1.00  0.00     0.170 HD
ATOM     13  HN  UNL d   1      27.622  45.290   9.332  1.00  0.00     0.172 HD
BRANCH  10  14
ATOM     14  C   UNL d   1      25.635  48.265   7.527  0.00  0.00     0.037 A 
ATOM     15  C   UNL d   1      24.425  48.142   6.876  0.00  0.00     0.029 A 
ATOM     16  C   UNL d   1      23.827  49.182   6.189  0.00  0.00     0.003 A 
ATOM     17  C   UNL d   1      24.441  50.407   6.134  0.00  0.00     0.017 A 
ATOM     18  C   UNL d   1      25.654  50.555   6.777  0.00  0.00     0.034 A 
ATOM     19  C   UNL d   1      26.245  49.518   7.460  0.00  0.00     0.046 A 
BRANCH  18  20
ATOM     20  C   UNL d   1      26.292  51.866   6.706  0.00  0.00     0.251 C 
ATOM     21  N   UNL d   1      26.812  52.524   7.859  0.00  0.00    -0.361 N 
ATOM     22  C   UNL d   1      27.540  53.770   7.626  0.00  0.00     0.149 C 
ATOM     23  HN  UNL d   1      26.683  52.144   8.797  1.00  0.00     0.162 HD
ATOM     24  O   UNL d   1      26.391  52.440   5.589  0.00  0.00    -0.268 OA
ENDBRANCH  18  20
ENDBRANCH  10  14
ENDBRANCH   1   8
BRANCH   4  25
ATOM     25  C   UNL d   1      33.533  44.194   8.165  0.00  0.00    -0.017 A 
ATOM     26  C   UNL d   1      34.124  43.575   9.253  0.00  0.00    -0.051 A 
ATOM     27  C   UNL d   1      33.356  43.403  10.515  0.00  0.00     0.049 C 
ATOM     28  C   UNL d   1      35.439  43.109   9.177  0.00  0.00     0.010 A 
ATOM     29  C   UNL d   1      36.185  43.257   8.005  0.00  0.00     0.030 A 
ATOM     30  C   UNL d   1      35.592  43.875   6.921  0.00  0.00     0.030 A 
ATOM     31  C   UNL d   1      34.288  44.330   7.017  0.00  0.00     0.042 A 
BRANCH  30  32
ATOM     32  N   UNL d   1      36.272  44.072   5.682  0.00  0.00    -0.390 N 
ATOM     33  C   UNL d   1      35.686  44.829   4.594  0.00  0.00     0.149 C 
ATOM     34  C   UNL d   1      37.593  43.482   5.540  0.00  0.00     0.149 C 
ENDBRANCH  30  32
ENDBRANCH   4  25
TORSDOF 5
ENDMDL
MODEL 4
REMARK VINA RESULT:      -7.6      2.156      2.755
REMARK  5 active torsions:
REMARK  status: ('A' for Active; 'I' for Inactive)
REMARK       I    between atoms: N_2  and  C_4 
REMARK    1  A    between atoms: C_4  and  C_6 
REMARK    2  A    between atoms: C_10  and  N_11 
REMARK       I    between atoms: N_11  and  C_13 
REMARK       I    between atoms: C_13  and  N_15 
REMARK    3  A    between atoms: N_15  and  C_17 
REMARK    4  A    between atoms: C_20  and  C_21 
REMARK    5  A    between atoms: C_26  and  N_27 
ROOT
ATOM      1  C   UNL d   1      29.072  46.901   8.099  0.00  0.00     0.108 A 
ATOM      2  C   UNL d   1      29.574  45.601   8.020  0.00  0.00     0.049 A 
ATOM      3  C   UNL d   1      30.910  45.338   7.794  0.00  0.00     0.017 A 
ATOM      4  C   UNL d   1      31.735  46.453   7.649  0.00  0.00    -0.010 A 
ATOM      5  C   UNL d   1      31.204  47.743   7.734  0.00  0.00     0.102 A 
ATOM      6  N   UNL d   1      29.886  47.969   7.956  0.00  0.00    -0.351 N 
ATOM      7  HN  UNL d   1      29.520  48.919   8.015  1.00  0.00     0.166 HD
ENDROOT
BRANCH   1   8
ATOM      8  N   UNL d   1      27.674  47.026   8.337  0.00  0.00    -0.294 N 
ATOM      9  C   UNL d   1      26.863  47.844   7.537  0.00  0.00     0.326 C 
ATOM     10  N   UNL d   1      25.474  47.936   7.880  0.00  0.00    -0.309 N 
ATOM     11  O   UNL d   1      27.363  48.462   6.563  0.00  0.00    -0.247 OA
ATOM     12  HN  UNL d   1      25.105  47.428   8.684  1.00  0.00     0.170 HD
ATOM     13  HN  UNL d   1      27.253  46.509   9.107  1.00  0.00     0.172 HD
BRANCH  10  14
ATOM     14  C   UNL d   1      24.617  48.748   7.084  0.00  0.00     0.037 A 
ATOM     15  C   UNL d   1      23.524  48.252   6.404  0.00  0.00     0.029 A 
ATOM     16  C   UNL d   1      22.693  49.040   5.631  0.00  0.00     0.003 A 
ATOM     17  C   UNL d   1      22.939  50.384   5.515  0.00  0.00     0.017 A 
ATOM     18  C   UNL d   1      24.027  50.905   6.186  0.00  0.00     0.034 A 
ATOM     19  C   UNL d   1      24.852  50.117   6.955  0.00  0.00     0.046 A 
BRANCH  18  20
ATOM     20  C   UNL d   1      24.274  52.337   6.051  0.00  0.00     0.251 C 
ATOM     21  N   UNL d   1      24.451  53.191   7.178  0.00  0.00    -0.361 N 
ATOM     22  C   UNL d   1      24.819  54.577   6.896  0.00  0.00     0.149 C 
ATOM     23  HN  UNL d   1      24.329  52.851   8.133  1.00  0.00     0.162 HD
ATOM     24  O   UNL d   1      24.333  52.842   4.898  0.00  0.00    -0.268 OA
ENDBRANCH  18  20
ENDBRANCH  10  14
ENDBRANCH   1   8
BRANCH   4  25
ATOM     25  C   UNL d   1      33.137  46.203   7.412  0.00  0.00    -0.017 A 
ATOM     26  C   UNL d   1      33.567  46.105   6.100  0.00  0.00    -0.051 A 
ATOM     27  C   UNL d   1      32.592  46.256   4.988  0.00  0.00     0.049 C 
ATOM     28  C   UNL d   1      34.912  45.863   5.810  0.00  0.00     0.010 A 
ATOM     29  C   UNL d   1      35.851  45.717   6.835  0.00  0.00     0.030 A 
ATOM     30  C   UNL d   1      35.418  45.815   8.143  0.00  0.00     0.030 A 
ATOM     31  C   UNL d   1      34.080  46.054   8.409  0.00  0.00     0.042 A 
BRANCH  30  32
ATOM     32  N   UNL d   1      36.300  45.679   9.257  0.00  0.00    -0.390 N 
ATOM     33  C   UNL d   1      37.738  45.617   9.097  0.00  0.00     0.149 C 
ATOM     34  C   UNL d   1      35.703  45.604  10.580  0.00  0.00     0.149 C 
ENDBRANCH  30  32
ENDBRANCH   4  25
TORSDOF 5
ENDMDL
MODEL 5
REMARK VINA RESULT:      -7.5      3.769      4.326
REMARK  5 active torsions:
REMARK  status: ('A' for Active; 'I' for Inactive)
REMARK       I    between atoms: N_2  and  C_4 
REMARK    1  A    between atoms: C_4  and  C_6 
REMARK    2  A    between atoms: C_10  and  N_11 
REMARK       I    between atoms: N_11  and  C_13 
REMARK       I    between atoms: C_13  and  N_15 
REMARK    3  A    between atoms: N_15  and  C_17 
REMARK    4  A    between atoms: C_20  and  C_21 
REMARK    5  A    between atoms: C_26  and  N_27 
ROOT
ATOM      1  C   UNL d   1      29.071  47.725   6.981  0.00  0.00     0.108 A 
ATOM      2  C   UNL d   1      28.883  47.185   8.253  0.00  0.00     0.049 A 
ATOM      3  C   UNL d   1      29.795  46.324   8.832  0.00  0.00     0.017 A 
ATOM      4  C   UNL d   1      30.921  46.025   8.067  0.00  0.00    -0.010 A 
ATOM      5  C   UNL d   1      31.083  46.582   6.795  0.00  0.00     0.102 A 
ATOM      6  N   UNL d   1      30.168  47.424   6.253  0.00  0.00    -0.351 N 
ATOM      7  HN  UNL d   1      30.307  47.820   5.324  1.00  0.00     0.166 HD
ENDROOT
BRANCH   1   8
ATOM      8  N   UNL d   1      28.052  48.599   6.507  0.00  0.00    -0.294 N 
ATOM      9  C   UNL d   1      28.259  49.981   6.402  0.00  0.00     0.326 C 
ATOM     10  N   UNL d   1      27.158  50.783   5.952  0.00  0.00    -0.309 N 
ATOM     11  O   UNL d   1      29.378  50.472   6.698  0.00  0.00    -0.247 OA
ATOM     12  HN  UNL d   1      26.261  50.352   5.730  1.00  0.00     0.170 HD
ATOM     13  HN  UNL d   1      27.149  48.209   6.239  1.00  0.00     0.172 HD
BRANCH  10  14
ATOM     14  C   UNL d   1      27.335  52.190   5.822  0.00  0.00     0.037 A 
ATOM     15  C   UNL d   1      27.677  52.801   4.633  0.00  0.00     0.029 A 
ATOM     16  C   UNL d   1      27.849  54.166   4.507  0.00  0.00     0.003 A 
ATOM     17  C   UNL d   1      27.677  54.980   5.597  0.00  0.00     0.017 A 
ATOM     18  C   UNL d   1      27.334  54.393   6.798  0.00  0.00     0.034 A 
ATOM     19  C   UNL d   1      27.164  53.033   6.919  0.00  0.00     0.046 A 
BRANCH  18  20
ATOM     20  C   UNL d   1      27.156  55.275   7.947  0.00  0.00     0.251 C 
ATOM     21  N   UNL d   1      28.219  55.583   8.845  0.00  0.00    -0.361 N 
ATOM     22  C   UNL d   1      27.936  56.581   9.875  0.00  0.00     0.149 C 
ATOM     23  HN  UNL d   1      29.131  55.130   8.772  1.00  0.00     0.162 HD
ATOM     24  O   UNL d   1      26.024  55.788   8.156  0.00  0.00    -0.268 OA
ENDBRANCH  18  20
ENDBRANCH  10  14
ENDBRANCH   1   8
BRANCH   4  25
ATOM     25  C   UNL d   1      31.889  45.127   8.651  0.00  0.00    -0.017 A 
ATOM     26  C   UNL d   1      31.534  43.798   8.805  0.00  0.00    -0.051 A 
ATOM     27  C   UNL d   1      30.188  43.337   8.372  0.00  0.00     0.049 C 
ATOM     28  C   UNL d   1      32.430  42.884   9.364  0.00  0.00     0.010 A 
ATOM     29  C   UNL d   1      33.701  43.289   9.780  0.00  0.00     0.030 A 
ATOM     30  C   UNL d   1      34.052  44.616   9.625  0.00  0.00     0.030 A 
ATOM     31  C   UNL d   1      33.149  45.506   9.069  0.00  0.00     0.042 A 
BRANCH  30  32
ATOM     32  N   UNL d   1      35.326  45.125  10.019  0.00  0.00    -0.390 N 
ATOM     33  C   UNL d   1      36.479  45.076   9.143  0.00  0.00     0.149 C 
ATOM     34  C   UNL d   1      35.435  45.704  11.348  0.00  0.00     0.149 C 
ENDBRANCH  30  32
ENDBRANCH   4  25
TORSDOF 5
ENDMDL
MODEL 6
REMARK VINA RESULT:      -7.5      2.179      2.730
REMARK  5 active torsions:
REMARK  status: ('A' for Active; 'I' for Inactive)
REMARK       I    between atoms: N_2  and  C_4 
REMARK    1  A    between atoms: C_4  and  C_6 
REMARK    2  A    between atoms: C_10  and  N_11 
REMARK       I    between atoms: N_11  and  C_13 
REMARK       I    between atoms: C_13  and  N_15 
REMARK    3  A    between atoms: N_15  and  C_17 
REMARK    4  A    between atoms: C_20  and  C_21 
REMARK    5  A    between atoms: C_26  and  N_27 
ROOT
ATOM      1  C   UNL d   1      28.056  47.031   8.129  0.00  0.00     0.108 A 
ATOM      2  C   UNL d   1      28.322  45.671   8.292  0.00  0.00     0.049 A 
ATOM      3  C   UNL d   1      29.603  45.159   8.249  0.00  0.00     0.017 A 
ATOM      4  C   UNL d   1      30.623  46.084   8.033  0.00  0.00    -0.010 A 
ATOM      5  C   UNL d   1      30.326  47.441   7.874  0.00  0.00     0.102 A 
ATOM      6  N   UNL d   1      29.056  47.914   7.921  0.00  0.00    -0.351 N 
ATOM      7  HN  UNL d   1      28.863  48.908   7.803  1.00  0.00     0.166 HD
ENDROOT
BRANCH   1   8
ATOM      8  N   UNL d   1      26.689  47.421   8.197  0.00  0.00    -0.294 N 
ATOM      9  C   UNL d   1      26.124  48.287   7.250  0.00  0.00     0.326 C 
ATOM     10  N   UNL d   1      24.748  48.653   7.426  0.00  0.00    -0.309 N 
ATOM     11  O   UNL d   1      26.821  48.711   6.293  0.00  0.00    -0.247 OA
ATOM     12  HN  UNL d   1      24.216  48.298   8.219  1.00  0.00     0.170 HD
ATOM     13  HN  UNL d   1      26.107  47.062   8.953  1.00  0.00     0.172 HD
BRANCH  10  14
ATOM     14  C   UNL d   1      24.137  49.521   6.477  0.00  0.00     0.037 A 
ATOM     15  C   UNL d   1      23.273  49.080   5.496  0.00  0.00     0.029 A 
ATOM     16  C   UNL d   1      22.680  49.923   4.576  0.00  0.00     0.003 A 
ATOM     17  C   UNL d   1      22.943  51.268   4.613  0.00  0.00     0.017 A 
ATOM     18  C   UNL d   1      23.804  51.735   5.585  0.00  0.00     0.034 A 
ATOM     19  C   UNL d   1      24.392  50.892   6.500  0.00  0.00     0.046 A 
BRANCH  18  20
ATOM     20  C   UNL d   1      24.071  53.170   5.609  0.00  0.00     0.251 C 
ATOM     21  N   UNL d   1      25.374  53.699   5.842  0.00  0.00    -0.361 N 
ATOM     22  C   UNL d   1      25.523  55.147   5.710  0.00  0.00     0.149 C 
ATOM     23  HN  UNL d   1      26.161  53.099   6.087  1.00  0.00     0.162 HD
ATOM     24  O   UNL d   1      23.120  53.973   5.417  0.00  0.00    -0.268 OA
ENDBRANCH  18  20
ENDBRANCH  10  14
ENDBRANCH   1   8
BRANCH   4  25
ATOM     25  C   UNL d   1      31.972  45.572   7.984  0.00  0.00    -0.017 A 
ATOM     26  C   UNL d   1      32.622  45.567   6.762  0.00  0.00    -0.051 A 
ATOM     27  C   UNL d   1      31.926  46.079   5.551  0.00  0.00     0.049 C 
ATOM     28  C   UNL d   1      33.928  45.083   6.655  0.00  0.00     0.010 A 
ATOM     29  C   UNL d   1      34.606  44.595   7.775  0.00  0.00     0.030 A 
ATOM     30  C   UNL d   1      33.954  44.602   8.993  0.00  0.00     0.030 A 
ATOM     31  C   UNL d   1      32.659  45.086   9.078  0.00  0.00     0.042 A 
BRANCH  30  32
ATOM     32  N   UNL d   1      34.562  44.125  10.193  0.00  0.00    -0.390 N 
ATOM     33  C   UNL d   1      34.687  44.954  11.375  0.00  0.00     0.149 C 
ATOM     34  C   UNL d   1      35.062  42.760  10.195  0.00  0.00     0.149 C 
ENDBRANCH  30  32
ENDBRANCH   4  25
TORSDOF 5
ENDMDL
MODEL 7
REMARK VINA RESULT:      -7.4      4.334      4.931
REMARK  5 active torsions:
REMARK  status: ('A' for Active; 'I' for Inactive)
REMARK       I    between atoms: N_2  and  C_4 
REMARK    1  A    between atoms: C_4  and  C_6 
REMARK    2  A    between atoms: C_10  and  N_11 
REMARK       I    between atoms: N_11  and  C_13 
REMARK       I    between atoms: C_13  and  N_15 
REMARK    3  A    between atoms: N_15  and  C_17 
REMARK    4  A    between atoms: C_20  and  C_21 
REMARK    5  A    between atoms: C_26  and  N_27 
ROOT
ATOM      1  C   UNL d   1      30.517  49.366   6.434  0.00  0.00     0.108 A 
ATOM      2  C   UNL d   1      31.262  49.173   7.598  0.00  0.00     0.049 A 
ATOM      3  C   UNL d   1      31.320  47.954   8.244  0.00  0.00     0.017 A 
ATOM      4  C   UNL d   1      30.587  46.921   7.664  0.00  0.00    -0.010 A 
ATOM      5  C   UNL d   1      29.850  47.143   6.497  0.00  0.00     0.102 A 
ATOM      6  N   UNL d   1      29.812  48.352   5.885  0.00  0.00    -0.351 N 
ATOM      7  HN  UNL d   1      29.269  48.492   5.034  1.00  0.00     0.166 HD
ENDROOT
BRANCH   1   8
ATOM      8  N   UNL d   1      30.547  50.673   5.872  0.00  0.00    -0.294 N 
ATOM      9  C   UNL d   1      29.420  51.506   5.888  0.00  0.00     0.326 C 
ATOM     10  N   UNL d   1      29.537  52.791   5.262  0.00  0.00    -0.309 N 
ATOM     11  O   UNL d   1      28.359  51.115   6.438  0.00  0.00    -0.247 OA
ATOM     12  HN  UNL d   1      30.410  53.071   4.816  1.00  0.00     0.170 HD
ATOM     13  HN  UNL d   1      31.410  51.011   5.447  1.00  0.00     0.172 HD
BRANCH  10  14
ATOM     14  C   UNL d   1      28.416  53.668   5.269  0.00  0.00     0.037 A 
ATOM     15  C   UNL d   1      27.688  53.973   4.137  0.00  0.00     0.029 A 
ATOM     16  C   UNL d   1      26.600  54.825   4.144  0.00  0.00     0.003 A 
ATOM     17  C   UNL d   1      26.199  55.411   5.317  0.00  0.00     0.017 A 
ATOM     18  C   UNL d   1      26.912  55.123   6.464  0.00  0.00     0.034 A 
ATOM     19  C   UNL d   1      27.994  54.274   6.452  0.00  0.00     0.046 A 
BRANCH  18  20
ATOM     20  C   UNL d   1      26.470  55.757   7.702  0.00  0.00     0.251 C 
ATOM     21  N   UNL d   1      26.691  55.168   8.981  0.00  0.00    -0.361 N 
ATOM     22  C   UNL d   1      26.314  55.970  10.143  0.00  0.00     0.149 C 
ATOM     23  HN  UNL d   1      27.091  54.235   9.080  1.00  0.00     0.162 HD
ATOM     24  O   UNL d   1      25.874  56.865   7.644  0.00  0.00    -0.268 OA
ENDBRANCH  18  20
ENDBRANCH  10  14
ENDBRANCH   1   8
BRANCH   4  25
ATOM     25  C   UNL d   1      30.632  45.637   8.323  0.00  0.00    -0.017 A 
ATOM     26  C   UNL d   1      29.492  45.200   8.975  0.00  0.00    -0.051 A 
ATOM     27  C   UNL d   1      28.271  46.050   8.981  0.00  0.00     0.049 C 
ATOM     28  C   UNL d   1      29.478  43.966   9.630  0.00  0.00     0.010 A 
ATOM     29  C   UNL d   1      30.610  43.147   9.640  0.00  0.00     0.030 A 
ATOM     30  C   UNL d   1      31.746  43.587   8.988  0.00  0.00     0.030 A 
ATOM     31  C   UNL d   1      31.739  44.813   8.346  0.00  0.00     0.042 A 
BRANCH  30  32
ATOM     32  N   UNL d   1      32.950  42.822   8.943  0.00  0.00    -0.390 N 
ATOM     33  C   UNL d   1      33.719  42.527  10.136  0.00  0.00     0.149 C 
ATOM     34  C   UNL d   1      33.391  42.340   7.645  0.00  0.00     0.149 C 
ENDBRANCH  30  32
ENDBRANCH   4  25
TORSDOF 5
ENDMDL
MODEL 8
REMARK VINA RESULT:      -7.4      4.181     10.684
REMARK  5 active torsions:
REMARK  status: ('A' for Active; 'I' for Inactive)
REMARK       I    between atoms: N_2  and  C_4 
REMARK    1  A    between atoms: C_4  and  C_6 
REMARK    2  A    between atoms: C_10  and  N_11 
REMARK       I    between atoms: N_11  and  C_13 
REMARK       I    between atoms: C_13  and  N_15 
REMARK    3  A    between atoms: N_15  and  C_17 
REMARK    4  A    between atoms: C_20  and  C_21 
REMARK    5  A    between atoms: C_26  and  N_27 
ROOT
ATOM      1  C   UNL d   1      28.974  49.544   6.148  0.00  0.00     0.108 A 
ATOM      2  C   UNL d   1      29.611  50.715   5.737  0.00  0.00     0.049 A 
ATOM      3  C   UNL d   1      29.045  51.963   5.910  0.00  0.00     0.017 A 
ATOM      4  C   UNL d   1      27.794  51.985   6.524  0.00  0.00    -0.010 A 
ATOM      5  C   UNL d   1      27.180  50.795   6.925  0.00  0.00     0.102 A 
ATOM      6  N   UNL d   1      27.761  49.584   6.741  0.00  0.00    -0.351 N 
ATOM      7  HN  UNL d   1      27.296  48.728   7.042  1.00  0.00     0.166 HD
ENDROOT
BRANCH   1   8
ATOM      8  N   UNL d   1      29.671  48.327   5.907  0.00  0.00    -0.294 N 
ATOM      9  C   UNL d   1      29.960  47.428   6.944  0.00  0.00     0.326 C 
ATOM     10  N   UNL d   1      30.702  46.247   6.609  0.00  0.00    -0.309 N 
ATOM     11  O   UNL d   1      29.570  47.674   8.114  0.00  0.00    -0.247 OA
ATOM     12  HN  UNL d   1      31.010  46.085   5.651  1.00  0.00     0.170 HD
ATOM     13  HN  UNL d   1      29.969  48.103   4.958  1.00  0.00     0.172 HD
BRANCH  10  14
ATOM     14  C   UNL d   1      31.003  45.306   7.634  0.00  0.00     0.037 A 
ATOM     15  C   UNL d   1      30.146  44.288   7.999  0.00  0.00     0.029 A 
ATOM     16  C   UNL d   1      30.439  43.374   8.994  0.00  0.00     0.003 A 
ATOM     17  C   UNL d   1      31.630  43.456   9.668  0.00  0.00     0.017 A 
ATOM     18  C   UNL d   1      32.505  44.466   9.321  0.00  0.00     0.034 A 
ATOM     19  C   UNL d   1      32.209  45.373   8.330  0.00  0.00     0.046 A 
BRANCH  18  20
ATOM     20  C   UNL d   1      33.767  44.537  10.049  0.00  0.00     0.251 C 
ATOM     21  N   UNL d   1      34.522  45.742  10.152  0.00  0.00    -0.361 N 
ATOM     22  C   UNL d   1      35.699  45.703  11.018  0.00  0.00     0.149 C 
ATOM     23  HN  UNL d   1      34.255  46.587   9.647  1.00  0.00     0.162 HD
ATOM     24  O   UNL d   1      34.210  43.500  10.611  0.00  0.00    -0.268 OA
ENDBRANCH  18  20
ENDBRANCH  10  14
ENDBRANCH   1   8
BRANCH   4  25
ATOM     25  C   UNL d   1      27.183  53.279   6.716  0.00  0.00    -0.017 A 
ATOM     26  C   UNL d   1      26.294  53.728   5.755  0.00  0.00    -0.051 A 
ATOM     27  C   UNL d   1      25.996  52.881   4.568  0.00  0.00     0.049 C 
ATOM     28  C   UNL d   1      25.672  54.972   5.888  0.00  0.00     0.010 A 
ATOM     29  C   UNL d   1      25.933  55.788   6.991  0.00  0.00     0.030 A 
ATOM     30  C   UNL d   1      26.821  55.337   7.948  0.00  0.00     0.030 A 
ATOM     31  C   UNL d   1      27.426  54.101   7.797  0.00  0.00     0.042 A 
BRANCH  30  32
ATOM     32  N   UNL d   1      27.151  56.099   9.110  0.00  0.00    -0.390 N 
ATOM     33  C   UNL d   1      28.524  56.351   9.500  0.00  0.00     0.149 C 
ATOM     34  C   UNL d   1      26.052  56.623   9.903  0.00  0.00     0.149 C 
ENDBRANCH  30  32
ENDBRANCH   4  25
TORSDOF 5
ENDMDL
MODEL 9
REMARK VINA RESULT:      -7.1      4.303     11.314
REMARK  5 active torsions:
REMARK  status: ('A' for Active; 'I' for Inactive)
REMARK       I    between atoms: N_2  and  C_4 
REMARK    1  A    between atoms: C_4  and  C_6 
REMARK    2  A    between atoms: C_10  and  N_11 
REMARK       I    between atoms: N_11  and  C_13 
REMARK       I    between atoms: C_13  and  N_15 
REMARK    3  A    between atoms: N_15  and  C_17 
REMARK    4  A    between atoms: C_20  and  C_21 
REMARK    5  A    between atoms: C_26  and  N_27 
ROOT
ATOM      1  C   UNL d   1      29.465  47.746   6.855  0.00  0.00     0.108 A 
ATOM      2  C   UNL d   1      28.190  48.031   7.344  0.00  0.00     0.049 A 
ATOM      3  C   UNL d   1      27.599  49.269   7.190  0.00  0.00     0.017 A 
ATOM      4  C   UNL d   1      28.354  50.225   6.513  0.00  0.00    -0.010 A 
ATOM      5  C   UNL d   1      29.630  49.911   6.033  0.00  0.00     0.102 A 
ATOM      6  N   UNL d   1      30.183  48.685   6.201  0.00  0.00    -0.351 N 
ATOM      7  HN  UNL d   1      31.115  48.477   5.842  1.00  0.00     0.166 HD
ENDROOT
BRANCH   1   8
ATOM      8  N   UNL d   1      29.951  46.429   7.084  0.00  0.00    -0.294 N 
ATOM      9  C   UNL d   1      31.215  46.199   7.646  0.00  0.00     0.326 C 
ATOM     10  N   UNL d   1      31.633  44.836   7.800  0.00  0.00    -0.309 N 
ATOM     11  O   UNL d   1      31.934  47.171   7.991  0.00  0.00    -0.247 OA
ATOM     12  HN  UNL d   1      31.027  44.072   7.500  1.00  0.00     0.170 HD
ATOM     13  HN  UNL d   1      29.366  45.633   6.833  1.00  0.00     0.172 HD
BRANCH  10  14
ATOM     14  C   UNL d   1      32.905  44.563   8.378  0.00  0.00     0.037 A 
ATOM     15  C   UNL d   1      33.096  44.378   9.732  0.00  0.00     0.029 A 
ATOM     16  C   UNL d   1      34.331  44.114  10.292  0.00  0.00     0.003 A 
ATOM     17  C   UNL d   1      35.440  44.024   9.490  0.00  0.00     0.017 A 
ATOM     18  C   UNL d   1      35.276  44.206   8.132  0.00  0.00     0.034 A 
ATOM     19  C   UNL d   1      34.044  44.469   7.579  0.00  0.00     0.046 A 
BRANCH  18  20
ATOM     20  C   UNL d   1      36.467  44.108   7.295  0.00  0.00     0.251 C 
ATOM     21  N   UNL d   1      37.785  44.162   7.835  0.00  0.00    -0.361 N 
ATOM     22  C   UNL d   1      38.884  43.920   6.902  0.00  0.00     0.149 C 
ATOM     23  HN  UNL d   1      37.953  44.358   8.822  1.00  0.00     0.162 HD
ATOM     24  O   UNL d   1      36.332  43.968   6.051  0.00  0.00    -0.268 OA
ENDBRANCH  18  20
ENDBRANCH  10  14
ENDBRANCH   1   8
BRANCH   4  25
ATOM     25  C   UNL d   1      27.757  51.528   6.340  0.00  0.00    -0.017 A 
ATOM     26  C   UNL d   1      26.891  51.711   5.276  0.00  0.00    -0.051 A 
ATOM     27  C   UNL d   1      26.602  50.580   4.354  0.00  0.00     0.049 C 
ATOM     28  C   UNL d   1      26.284  52.950   5.059  0.00  0.00     0.010 A 
ATOM     29  C   UNL d   1      26.537  54.030   5.909  0.00  0.00     0.030 A 
ATOM     30  C   UNL d   1      27.402  53.844   6.969  0.00  0.00     0.030 A 
ATOM     31  C   UNL d   1      27.993  52.608   7.166  0.00  0.00     0.042 A 
BRANCH  30  32
ATOM     32  N   UNL d   1      27.723  54.886   7.891  0.00  0.00    -0.390 N 
ATOM     33  C   UNL d   1      29.051  55.037   8.450  0.00  0.00     0.149 C 
ATOM     34  C   UNL d   1      26.661  55.807   8.258  0.00  0.00     0.149 C 
ENDBRANCH  30  32
ENDBRANCH   4  25
TORSDOF 5
ENDMDL
