MODEL 1
REMARK VINA RESULT:      -8.5      0.000      0.000
REMARK  8 active torsions:
REMARK  status: ('A' for Active; 'I' for Inactive)
REMARK    1  A    between atoms: C_2  and  C_3 
REMARK    2  A    between atoms: C_5  and  N_6 
REMARK       I    between atoms: N_6  and  C_8 
REMARK       I    between atoms: C_8  and  N_10 
REMARK    3  A    between atoms: N_10  and  C_12 
REMARK    4  A    between atoms: C_15  and  C_16 
REMARK    5  A    between atoms: C_20  and  N_21 
REMARK    6  A    between atoms: N_21  and  C_23 
REMARK    7  A    between atoms: C_30  and  N_31 
REMARK    8  A    between atoms: N_34  and  C_35 
ROOT
ATOM      1  C   UNL d   1      32.191  43.533   8.476  0.00  0.00     0.034 A 
ATOM      2  C   UNL d   1      32.730  42.440   8.152  0.00  0.00     0.110 A 
ATOM      3  N   UNL d   1      34.027  42.275   8.141  0.00  0.00    -0.345 N 
ATOM      4  HN  UNL d   1      34.364  41.352   7.865  1.00  0.00     0.167 HD
ATOM      5  C   UNL d   1      34.860  43.078   8.418  0.00  0.00     0.150 A 
ATOM      6  S   UNL d   1      33.739  44.566   8.846  0.00  0.00    -0.052 SA
ENDROOT
BRANCH   1   7
ATOM      7  C   UNL d   1      30.872  44.160   8.631  0.00  0.00    -0.018 A 
ATOM      8  C   UNL d   1      30.545  45.101   7.648  0.00  0.00     0.015 A 
ATOM      9  C   UNL d   1      29.322  45.735   7.722  0.00  0.00     0.030 A 
ATOM     10  C   UNL d   1      28.441  45.446   8.747  0.00  0.00     0.036 A 
ATOM     11  C   UNL d   1      28.780  44.516   9.707  0.00  0.00     0.030 A 
ATOM     12  C   UNL d   1      30.013  43.853   9.663  0.00  0.00     0.015 A 
BRANCH  10  13
ATOM     13  N   UNL d   1      27.204  46.150   8.738  0.00  0.00    -0.309 N 
ATOM     14  C   UNL d   1      27.019  47.376   8.065  0.00  0.00     0.326 C 
ATOM     15  N   UNL d   1      25.721  47.915   7.993  0.00  0.00    -0.293 N 
ATOM     16  O   UNL d   1      27.961  48.013   7.523  0.00  0.00    -0.247 OA
ATOM     17  HN  UNL d   1      24.979  47.413   8.484  1.00  0.00     0.172 HD
ATOM     18  HN  UNL d   1      26.414  45.749   9.242  1.00  0.00     0.170 HD
BRANCH  15  19
ATOM     19  C   UNL d   1      25.355  49.098   7.297  0.00  0.00     0.132 A 
ATOM     20  C   UNL d   1      24.190  49.215   6.581  0.00  0.00     0.085 A 
ATOM     21  C   UNL d   1      24.186  50.489   6.057  0.00  0.00     0.079 A 
ATOM     22  O   UNL d   1      25.281  51.051   6.455  0.00  0.00    -0.241 OA
ATOM     23  N   UNL d   1      26.003  50.272   7.189  0.00  0.00    -0.245 N 
ATOM     24  HN  UNL d   1      26.903  50.505   7.610  1.00  0.00     0.196 HD
BRANCH  21  25
ATOM     25  C   UNL d   1      23.099  51.027   5.211  0.00  0.00     0.063 C 
ATOM     26  C   UNL d   1      22.640  49.927   4.264  0.00  0.00     0.012 C 
ENDBRANCH  21  25
ENDBRANCH  15  19
ENDBRANCH  10  13
ENDBRANCH   1   7
BRANCH   5  27
ATOM     27  N   UNL d   1      36.267  43.254   8.514  0.00  0.00    -0.323 N 
ATOM     28  HN  UNL d   1      36.755  42.781   9.276  1.00  0.00     0.169 HD
BRANCH  27  29
ATOM     29  C   UNL d   1      37.042  44.042   7.625  0.00  0.00     0.111 A 
ATOM     30  N   UNL d   1      38.260  44.534   7.933  0.00  0.00    -0.332 N 
ATOM     31  C   UNL d   1      38.956  45.281   7.053  0.00  0.00     0.080 A 
ATOM     32  HN  UNL d   1      38.661  44.338   8.850  1.00  0.00     0.168 HD
ATOM     33  C   UNL d   1      40.312  45.829   7.395  0.00  0.00     0.089 C 
ATOM     34  N   UNL d   1      38.464  45.564   5.832  0.00  0.00    -0.332 N 
ATOM     35  C   UNL d   1      37.256  45.081   5.513  0.00  0.00     0.108 A 
ATOM     36  HN  UNL d   1      38.995  46.129   5.170  1.00  0.00     0.168 HD
ATOM     37  C   UNL d   1      36.522  44.315   6.394  0.00  0.00     0.097 A 
BRANCH  35  38
ATOM     38  N   UNL d   1      36.716  45.380   4.210  0.00  0.00    -0.364 N 
ATOM     39  C   UNL d   1      36.815  46.707   3.667  0.00  0.00     0.154 C 
ATOM     40  C   UNL d   1      35.489  47.101   3.065  0.00  0.00     0.292 C 
ATOM     41  N   UNL d   1      34.902  46.098   2.226  0.00  0.00     0.091 N 
ATOM     42  C   UNL d   1      35.660  44.878   2.125  0.00  0.00     0.292 C 
ATOM     43  C   UNL d   1      36.066  44.314   3.451  0.00  0.00     0.154 C 
BRANCH  41  44
ATOM     44  C   UNL d   1      33.495  45.906   2.403  0.00  0.00     0.268 C 
ATOM     45  C   UNL d   1      33.004  46.363   3.759  0.00  0.00     0.037 C 
ENDBRANCH  41  44
ENDBRANCH  35  38
ENDBRANCH  27  29
ENDBRANCH   5  27
TORSDOF 8
ENDMDL
MODEL 2
REMARK VINA RESULT:      -8.3      4.505     12.239
REMARK  8 active torsions:
REMARK  status: ('A' for Active; 'I' for Inactive)
REMARK    1  A    between atoms: C_2  and  C_3 
REMARK    2  A    between atoms: C_5  and  N_6 
REMARK       I    between atoms: N_6  and  C_8 
REMARK       I    between atoms: C_8  and  N_10 
REMARK    3  A    between atoms: N_10  and  C_12 
REMARK    4  A    between atoms: C_15  and  C_16 
REMARK    5  A    between atoms: C_20  and  N_21 
REMARK    6  A    between atoms: N_21  and  C_23 
REMARK    7  A    between atoms: C_30  and  N_31 
REMARK    8  A    between atoms: N_34  and  C_35 
ROOT
ATOM      1  C   UNL d   1      29.262  46.119   8.194  0.00  0.00     0.034 A 
ATOM      2  C   UNL d   1      28.055  46.007   8.542  0.00  0.00     0.110 A 
ATOM      3  N   UNL d   1      27.193  46.981   8.403  0.00  0.00    -0.345 N 
ATOM      4  HN  UNL d   1      26.241  46.790   8.715  1.00  0.00     0.167 HD
ATOM      5  C   UNL d   1      27.393  48.064   7.954  0.00  0.00     0.150 A 
ATOM      6  S   UNL d   1      29.252  47.900   7.541  0.00  0.00    -0.052 SA
ENDROOT
BRANCH   1   7
ATOM      7  C   UNL d   1      30.519  45.360   8.151  0.00  0.00    -0.018 A 
ATOM      8  C   UNL d   1      30.380  43.977   8.310  0.00  0.00     0.015 A 
ATOM      9  C   UNL d   1      31.515  43.192   8.282  0.00  0.00     0.030 A 
ATOM     10  C   UNL d   1      32.760  43.763   8.101  0.00  0.00     0.036 A 
ATOM     11  C   UNL d   1      32.878  45.128   7.947  0.00  0.00     0.030 A 
ATOM     12  C   UNL d   1      31.747  45.956   7.970  0.00  0.00     0.015 A 
BRANCH  10  13
ATOM     13  N   UNL d   1      33.870  42.873   8.085  0.00  0.00    -0.309 N 
ATOM     14  C   UNL d   1      34.308  42.165   9.224  0.00  0.00     0.326 C 
ATOM     15  N   UNL d   1      35.319  41.199   9.069  0.00  0.00    -0.293 N 
ATOM     16  O   UNL d   1      33.836  42.355  10.377  0.00  0.00    -0.247 OA
ATOM     17  HN  UNL d   1      35.728  41.096   8.139  1.00  0.00     0.172 HD
ATOM     18  HN  UNL d   1      34.373  42.740   7.208  1.00  0.00     0.170 HD
BRANCH  15  19
ATOM     19  C   UNL d   1      35.820  40.355  10.096  0.00  0.00     0.132 A 
ATOM     20  C   UNL d   1      35.012  39.724  11.008  0.00  0.00     0.085 A 
ATOM     21  C   UNL d   1      35.849  39.003  11.832  0.00  0.00     0.079 A 
ATOM     22  O   UNL d   1      37.052  39.218  11.407  0.00  0.00    -0.241 OA
ATOM     23  N   UNL d   1      37.088  40.007  10.386  0.00  0.00    -0.245 N 
ATOM     24  HN  UNL d   1      37.924  40.312   9.889  1.00  0.00     0.196 HD
BRANCH  21  25
ATOM     25  C   UNL d   1      35.377  38.174  12.961  0.00  0.00     0.063 C 
ATOM     26  C   UNL d   1      36.529  37.293  13.423  0.00  0.00     0.012 C 
ENDBRANCH  21  25
ENDBRANCH  15  19
ENDBRANCH  10  13
ENDBRANCH   1   7
BRANCH   5  27
ATOM     27  N   UNL d   1      26.751  49.299   7.666  0.00  0.00    -0.323 N 
ATOM     28  HN  UNL d   1      27.201  50.156   7.988  1.00  0.00     0.169 HD
BRANCH  27  29
ATOM     29  C   UNL d   1      25.526  49.424   6.960  0.00  0.00     0.111 A 
ATOM     30  N   UNL d   1      24.384  48.814   7.337  0.00  0.00    -0.332 N 
ATOM     31  C   UNL d   1      23.245  48.962   6.631  0.00  0.00     0.080 A 
ATOM     32  HN  UNL d   1      24.382  48.229   8.173  1.00  0.00     0.168 HD
ATOM     33  C   UNL d   1      21.973  48.283   7.050  0.00  0.00     0.089 C 
ATOM     34  N   UNL d   1      23.204  49.724   5.522  0.00  0.00    -0.332 N 
ATOM     35  C   UNL d   1      24.332  50.336   5.137  0.00  0.00     0.108 A 
ATOM     36  HN  UNL d   1      22.340  49.833   4.991  1.00  0.00     0.168 HD
ATOM     37  C   UNL d   1      25.510  50.202   5.840  0.00  0.00     0.097 A 
BRANCH  35  38
ATOM     38  N   UNL d   1      24.301  51.152   3.949  0.00  0.00    -0.364 N 
ATOM     39  C   UNL d   1      23.053  51.645   3.434  0.00  0.00     0.154 C 
ATOM     40  C   UNL d   1      23.016  51.450   1.940  0.00  0.00     0.292 C 
ATOM     41  N   UNL d   1      24.207  51.867   1.261  0.00  0.00     0.091 N 
ATOM     42  C   UNL d   1      25.245  52.371   2.122  0.00  0.00     0.292 C 
ATOM     43  C   UNL d   1      25.559  51.469   3.275  0.00  0.00     0.154 C 
BRANCH  41  44
ATOM     44  C   UNL d   1      24.668  50.976   0.240  0.00  0.00     0.268 C 
ATOM     45  C   UNL d   1      25.706  51.604  -0.663  0.00  0.00     0.037 C 
ENDBRANCH  41  44
ENDBRANCH  35  38
ENDBRANCH  27  29
ENDBRANCH   5  27
TORSDOF 8
ENDMDL
MODEL 3
REMARK VINA RESULT:      -8.1      4.490     12.360
REMARK  8 active torsions:
REMARK  status: ('A' for Active; 'I' for Inactive)
REMARK    1  A    between atoms: C_2  and  C_3 
REMARK    2  A    between atoms: C_5  and  N_6 
REMARK       I    between atoms: N_6  and  C_8 
REMARK       I    between atoms: C_8  and  N_10 
REMARK    3  A    between atoms: N_10  and  C_12 
REMARK    4  A    between atoms: C_15  and  C_16 
REMARK    5  A    between atoms: C_20  and  N_21 
REMARK    6  A    between atoms: N_21  and  C_23 
REMARK    7  A    between atoms: C_30  and  N_31 
REMARK    8  A    between atoms: N_34  and  C_35 
ROOT
ATOM      1  C   UNL d   1      30.346  46.705   7.728  0.00  0.00     0.034 A 
ATOM      2  C   UNL d   1      30.074  47.820   7.205  0.00  0.00     0.110 A 
ATOM      3  N   UNL d   1      28.870  48.331   7.233  0.00  0.00    -0.345 N 
ATOM      4  HN  UNL d   1      28.754  49.239   6.782  1.00  0.00     0.167 HD
ATOM      5  C   UNL d   1      27.896  47.858   7.725  0.00  0.00     0.150 A 
ATOM      6  S   UNL d   1      28.637  46.232   8.402  0.00  0.00    -0.052 SA
ENDROOT
BRANCH   1   7
ATOM      7  C   UNL d   1      31.468  45.781   7.941  0.00  0.00    -0.018 A 
ATOM      8  C   UNL d   1      31.135  44.423   7.873  0.00  0.00     0.015 A 
ATOM      9  C   UNL d   1      32.134  43.489   8.061  0.00  0.00     0.030 A 
ATOM     10  C   UNL d   1      33.433  43.890   8.312  0.00  0.00     0.036 A 
ATOM     11  C   UNL d   1      33.742  45.232   8.375  0.00  0.00     0.030 A 
ATOM     12  C   UNL d   1      32.753  46.208   8.189  0.00  0.00     0.015 A 
BRANCH  10  13
ATOM     13  N   UNL d   1      34.393  42.855   8.491  0.00  0.00    -0.309 N 
ATOM     14  C   UNL d   1      34.426  42.023   9.630  0.00  0.00     0.326 C 
ATOM     15  N   UNL d   1      35.319  40.935   9.643  0.00  0.00    -0.293 N 
ATOM     16  O   UNL d   1      33.695  42.207  10.639  0.00  0.00    -0.247 OA
ATOM     17  HN  UNL d   1      35.943  40.833   8.840  1.00  0.00     0.172 HD
ATOM     18  HN  UNL d   1      35.089  42.706   7.761  1.00  0.00     0.170 HD
BRANCH  15  19
ATOM     19  C   UNL d   1      35.428  39.967  10.677  0.00  0.00     0.132 A 
ATOM     20  C   UNL d   1      36.631  39.488  11.130  0.00  0.00     0.085 A 
ATOM     21  C   UNL d   1      36.335  38.580  12.124  0.00  0.00     0.079 A 
ATOM     22  O   UNL d   1      35.045  38.552  12.221  0.00  0.00    -0.241 OA
ATOM     23  N   UNL d   1      34.465  39.353  11.390  0.00  0.00    -0.245 N 
ATOM     24  HN  UNL d   1      33.460  39.494  11.291  1.00  0.00     0.196 HD
BRANCH  21  25
ATOM     25  C   UNL d   1      37.358  37.826  12.879  0.00  0.00     0.063 C 
ATOM     26  C   UNL d   1      36.652  36.768  13.717  0.00  0.00     0.012 C 
ENDBRANCH  21  25
ENDBRANCH  15  19
ENDBRANCH  10  13
ENDBRANCH   1   7
BRANCH   5  27
ATOM     27  N   UNL d   1      26.511  48.100   7.937  0.00  0.00    -0.323 N 
ATOM     28  HN  UNL d   1      26.008  47.468   8.560  1.00  0.00     0.169 HD
BRANCH  27  29
ATOM     29  C   UNL d   1      25.780  49.161   7.342  0.00  0.00     0.111 A 
ATOM     30  N   UNL d   1      24.527  49.024   6.862  0.00  0.00    -0.332 N 
ATOM     31  C   UNL d   1      23.874  50.062   6.303  0.00  0.00     0.080 A 
ATOM     32  HN  UNL d   1      24.065  48.117   6.922  1.00  0.00     0.168 HD
ATOM     33  C   UNL d   1      22.479  49.911   5.767  0.00  0.00     0.089 C 
ATOM     34  N   UNL d   1      24.447  51.277   6.203  0.00  0.00    -0.332 N 
ATOM     35  C   UNL d   1      25.691  51.426   6.677  0.00  0.00     0.108 A 
ATOM     36  HN  UNL d   1      23.949  52.059   5.779  1.00  0.00     0.168 HD
ATOM     37  C   UNL d   1      26.381  50.381   7.253  0.00  0.00     0.097 A 
BRANCH  35  38
ATOM     38  N   UNL d   1      26.317  52.721   6.572  0.00  0.00    -0.364 N 
ATOM     39  C   UNL d   1      27.747  52.848   6.651  0.00  0.00     0.154 C 
ATOM     40  C   UNL d   1      28.097  54.001   7.557  0.00  0.00     0.292 C 
ATOM     41  N   UNL d   1      27.352  55.198   7.302  0.00  0.00     0.091 N 
ATOM     42  C   UNL d   1      26.377  55.089   6.248  0.00  0.00     0.292 C 
ATOM     43  C   UNL d   1      25.476  53.902   6.387  0.00  0.00     0.154 C 
BRANCH  41  44
ATOM     44  C   UNL d   1      26.885  55.883   8.469  0.00  0.00     0.268 C 
ATOM     45  C   UNL d   1      27.961  56.060   9.518  0.00  0.00     0.037 C 
ENDBRANCH  41  44
ENDBRANCH  35  38
ENDBRANCH  27  29
ENDBRANCH   5  27
TORSDOF 8
ENDMDL
MODEL 4
REMARK VINA RESULT:      -8.0      1.779      2.138
REMARK  8 active torsions:
REMARK  status: ('A' for Active; 'I' for Inactive)
REMARK    1  A    between atoms: C_2  and  C_3 
REMARK    2  A    between atoms: C_5  and  N_6 
REMARK       I    between atoms: N_6  and  C_8 
REMARK       I    between atoms: C_8  and  N_10 
REMARK    3  A    between atoms: N_10  and  C_12 
REMARK    4  A    between atoms: C_15  and  C_16 
REMARK    5  A    between atoms: C_20  and  N_21 
REMARK    6  A    between atoms: N_21  and  C_23 
REMARK    7  A    between atoms: C_30  and  N_31 
REMARK    8  A    between atoms: N_34  and  C_35 
ROOT
ATOM      1  C   UNL d   1      31.086  44.695   8.354  0.00  0.00     0.034 A 
ATOM      2  C   UNL d   1      31.305  43.453   8.362  0.00  0.00     0.110 A 
ATOM      3  N   UNL d   1      32.505  42.955   8.509  0.00  0.00    -0.345 N 
ATOM      4  HN  UNL d   1      32.576  41.937   8.502  1.00  0.00     0.167 HD
ATOM      5  C   UNL d   1      33.524  43.553   8.650  0.00  0.00     0.150 A 
ATOM      6  S   UNL d   1      32.854  45.342   8.592  0.00  0.00    -0.052 SA
ENDROOT
BRANCH   1   7
ATOM      7  C   UNL d   1      29.992  45.667   8.230  0.00  0.00    -0.018 A 
ATOM      8  C   UNL d   1      30.223  46.703   7.318  0.00  0.00     0.015 A 
ATOM      9  C   UNL d   1      29.241  47.658   7.143  0.00  0.00     0.030 A 
ATOM     10  C   UNL d   1      28.058  47.589   7.854  0.00  0.00     0.036 A 
ATOM     11  C   UNL d   1      27.848  46.560   8.747  0.00  0.00     0.030 A 
ATOM     12  C   UNL d   1      28.822  45.574   8.951  0.00  0.00     0.015 A 
BRANCH  10  13
ATOM     13  N   UNL d   1      27.107  48.618   7.604  0.00  0.00    -0.309 N 
ATOM     14  C   UNL d   1      25.746  48.362   7.333  0.00  0.00     0.326 C 
ATOM     15  N   UNL d   1      24.861  49.452   7.248  0.00  0.00    -0.293 N 
ATOM     16  O   UNL d   1      25.284  47.202   7.164  0.00  0.00    -0.247 OA
ATOM     17  HN  UNL d   1      25.261  50.387   7.334  1.00  0.00     0.172 HD
ATOM     18  HN  UNL d   1      27.424  49.586   7.622  1.00  0.00     0.170 HD
BRANCH  15  19
ATOM     19  C   UNL d   1      23.456  49.362   7.052  0.00  0.00     0.132 A 
ATOM     20  C   UNL d   1      22.605  50.423   7.237  0.00  0.00     0.085 A 
ATOM     21  C   UNL d   1      21.340  49.956   6.953  0.00  0.00     0.079 A 
ATOM     22  O   UNL d   1      21.474  48.711   6.629  0.00  0.00    -0.241 OA
ATOM     23  N   UNL d   1      22.702  48.314   6.671  0.00  0.00    -0.245 N 
ATOM     24  HN  UNL d   1      23.040  47.376   6.455  1.00  0.00     0.196 HD
BRANCH  21  25
ATOM     25  C   UNL d   1      20.120  50.788   7.033  0.00  0.00     0.063 C 
ATOM     26  C   UNL d   1      20.062  51.423   8.415  0.00  0.00     0.012 C 
ENDBRANCH  21  25
ENDBRANCH  15  19
ENDBRANCH  10  13
ENDBRANCH   1   7
BRANCH   5  27
ATOM     27  N   UNL d   1      34.922  43.369   8.825  0.00  0.00    -0.323 N 
ATOM     28  HN  UNL d   1      35.230  42.720   9.549  1.00  0.00     0.169 HD
BRANCH  27  29
ATOM     29  C   UNL d   1      35.922  44.027   8.062  0.00  0.00     0.111 A 
ATOM     30  N   UNL d   1      37.099  44.440   8.574  0.00  0.00    -0.332 N 
ATOM     31  C   UNL d   1      38.016  45.063   7.807  0.00  0.00     0.080 A 
ATOM     32  HN  UNL d   1      37.299  44.277   9.561  1.00  0.00     0.168 HD
ATOM     33  C   UNL d   1      39.327  45.523   8.376  0.00  0.00     0.089 C 
ATOM     34  N   UNL d   1      37.793  45.297   6.500  0.00  0.00    -0.332 N 
ATOM     35  C   UNL d   1      36.627  44.892   5.979  0.00  0.00     0.108 A 
ATOM     36  HN  UNL d   1      38.489  45.769   5.925  1.00  0.00     0.168 HD
ATOM     37  C   UNL d   1      35.672  44.252   6.740  0.00  0.00     0.097 A 
BRANCH  35  38
ATOM     38  N   UNL d   1      36.374  45.140   4.581  0.00  0.00    -0.364 N 
ATOM     39  C   UNL d   1      36.669  46.423   4.004  0.00  0.00     0.154 C 
ATOM     40  C   UNL d   1      35.517  46.855   3.132  0.00  0.00     0.292 C 
ATOM     41  N   UNL d   1      35.036  45.839   2.244  0.00  0.00     0.091 N 
ATOM     42  C   UNL d   1      35.712  44.572   2.355  0.00  0.00     0.292 C 
ATOM     43  C   UNL d   1      35.811  44.069   3.762  0.00  0.00     0.154 C 
BRANCH  41  44
ATOM     44  C   UNL d   1      33.611  45.741   2.146  0.00  0.00     0.268 C 
ATOM     45  C   UNL d   1      33.143  45.328   0.768  0.00  0.00     0.037 C 
ENDBRANCH  41  44
ENDBRANCH  35  38
ENDBRANCH  27  29
ENDBRANCH   5  27
TORSDOF 8
ENDMDL
MODEL 5
REMARK VINA RESULT:      -8.0      4.914     12.056
REMARK  8 active torsions:
REMARK  status: ('A' for Active; 'I' for Inactive)
REMARK    1  A    between atoms: C_2  and  C_3 
REMARK    2  A    between atoms: C_5  and  N_6 
REMARK       I    between atoms: N_6  and  C_8 
REMARK       I    between atoms: C_8  and  N_10 
REMARK    3  A    between atoms: N_10  and  C_12 
REMARK    4  A    between atoms: C_15  and  C_16 
REMARK    5  A    between atoms: C_20  and  N_21 
REMARK    6  A    between atoms: N_21  and  C_23 
REMARK    7  A    between atoms: C_30  and  N_31 
REMARK    8  A    between atoms: N_34  and  C_35 
ROOT
ATOM      1  C   UNL d   1      29.420  46.486   8.086  0.00  0.00     0.034 A 
ATOM      2  C   UNL d   1      28.479  47.024   8.730  0.00  0.00     0.110 A 
ATOM      3  N   UNL d   1      27.836  48.073   8.286  0.00  0.00    -0.345 N 
ATOM      4  HN  UNL d   1      27.090  48.432   8.882  1.00  0.00     0.167 HD
ATOM      5  C   UNL d   1      28.021  48.655   7.265  0.00  0.00     0.150 A 
ATOM      6  S   UNL d   1      29.461  47.615   6.561  0.00  0.00    -0.052 SA
ENDROOT
BRANCH   1   7
ATOM      7  C   UNL d   1      30.376  45.374   8.165  0.00  0.00    -0.018 A 
ATOM      8  C   UNL d   1      31.562  45.562   7.448  0.00  0.00     0.015 A 
ATOM      9  C   UNL d   1      32.513  44.562   7.472  0.00  0.00     0.030 A 
ATOM     10  C   UNL d   1      32.295  43.401   8.189  0.00  0.00     0.036 A 
ATOM     11  C   UNL d   1      31.119  43.233   8.889  0.00  0.00     0.030 A 
ATOM     12  C   UNL d   1      30.132  44.227   8.888  0.00  0.00     0.015 A 
BRANCH  10  13
ATOM     13  N   UNL d   1      33.333  42.429   8.154  0.00  0.00    -0.309 N 
ATOM     14  C   UNL d   1      33.940  41.905   9.315  0.00  0.00     0.326 C 
ATOM     15  N   UNL d   1      34.851  40.842   9.177  0.00  0.00    -0.293 N 
ATOM     16  O   UNL d   1      33.705  42.344  10.472  0.00  0.00    -0.247 OA
ATOM     17  HN  UNL d   1      35.071  40.534   8.229  1.00  0.00     0.172 HD
ATOM     18  HN  UNL d   1      33.654  42.093   7.246  1.00  0.00     0.170 HD
BRANCH  15  19
ATOM     19  C   UNL d   1      35.493  40.159  10.246  0.00  0.00     0.132 A 
ATOM     20  C   UNL d   1      34.805  39.473  11.216  0.00  0.00     0.085 A 
ATOM     21  C   UNL d   1      35.756  38.951  12.066  0.00  0.00     0.079 A 
ATOM     22  O   UNL d   1      36.905  39.323  11.601  0.00  0.00    -0.241 OA
ATOM     23  N   UNL d   1      36.802  40.035  10.529  0.00  0.00    -0.245 N 
ATOM     24  HN  UNL d   1      37.574  40.433   9.994  1.00  0.00     0.196 HD
BRANCH  21  25
ATOM     25  C   UNL d   1      35.435  38.138  13.257  0.00  0.00     0.063 C 
ATOM     26  C   UNL d   1      36.553  37.125  13.462  0.00  0.00     0.012 C 
ENDBRANCH  21  25
ENDBRANCH  15  19
ENDBRANCH  10  13
ENDBRANCH   1   7
BRANCH   5  27
ATOM     27  N   UNL d   1      27.558  49.758   6.498  0.00  0.00    -0.323 N 
ATOM     28  HN  UNL d   1      26.737  49.617   5.909  1.00  0.00     0.169 HD
BRANCH  27  29
ATOM     29  C   UNL d   1      28.158  51.044   6.494  0.00  0.00     0.111 A 
ATOM     30  N   UNL d   1      29.439  51.267   6.134  0.00  0.00    -0.332 N 
ATOM     31  C   UNL d   1      29.964  52.508   6.150  0.00  0.00     0.080 A 
ATOM     32  HN  UNL d   1      30.021  50.481   5.845  1.00  0.00     0.168 HD
ATOM     33  C   UNL d   1      31.389  52.758   5.750  0.00  0.00     0.089 C 
ATOM     34  N   UNL d   1      29.230  53.574   6.524  0.00  0.00    -0.332 N 
ATOM     35  C   UNL d   1      27.957  53.366   6.883  0.00  0.00     0.108 A 
ATOM     36  HN  UNL d   1      29.633  54.511   6.534  1.00  0.00     0.168 HD
ATOM     37  C   UNL d   1      27.395  52.107   6.877  0.00  0.00     0.097 A 
BRANCH  35  38
ATOM     38  N   UNL d   1      27.162  54.498   7.290  0.00  0.00    -0.364 N 
ATOM     39  C   UNL d   1      27.059  54.856   8.678  0.00  0.00     0.154 C 
ATOM     40  C   UNL d   1      25.619  55.154   9.013  0.00  0.00     0.292 C 
ATOM     41  N   UNL d   1      24.961  56.010   8.071  0.00  0.00     0.091 N 
ATOM     42  C   UNL d   1      25.774  56.415   6.954  0.00  0.00     0.292 C 
ATOM     43  C   UNL d   1      26.461  55.275   6.270  0.00  0.00     0.154 C 
BRANCH  41  44
ATOM     44  C   UNL d   1      23.629  55.618   7.721  0.00  0.00     0.268 C 
ATOM     45  C   UNL d   1      22.607  56.700   7.994  0.00  0.00     0.037 C 
ENDBRANCH  41  44
ENDBRANCH  35  38
ENDBRANCH  27  29
ENDBRANCH   5  27
TORSDOF 8
ENDMDL
MODEL 6
REMARK VINA RESULT:      -7.9      5.065     11.680
REMARK  8 active torsions:
REMARK  status: ('A' for Active; 'I' for Inactive)
REMARK    1  A    between atoms: C_2  and  C_3 
REMARK    2  A    between atoms: C_5  and  N_6 
REMARK       I    between atoms: N_6  and  C_8 
REMARK       I    between atoms: C_8  and  N_10 
REMARK    3  A    between atoms: N_10  and  C_12 
REMARK    4  A    between atoms: C_15  and  C_16 
REMARK    5  A    between atoms: C_20  and  N_21 
REMARK    6  A    between atoms: N_21  and  C_23 
REMARK    7  A    between atoms: C_30  and  N_31 
REMARK    8  A    between atoms: N_34  and  C_35 
ROOT
ATOM      1  C   UNL d   1      31.158  46.996   7.599  0.00  0.00     0.034 A 
ATOM      2  C   UNL d   1      30.091  47.618   7.345  0.00  0.00     0.110 A 
ATOM      3  N   UNL d   1      30.056  48.916   7.191  0.00  0.00    -0.345 N 
ATOM      4  HN  UNL d   1      29.144  49.324   6.987  1.00  0.00     0.167 HD
ATOM      5  C   UNL d   1      30.969  49.676   7.260  0.00  0.00     0.150 A 
ATOM      6  S   UNL d   1      32.380  48.446   7.644  0.00  0.00    -0.052 SA
ENDROOT
BRANCH   1   7
ATOM      7  C   UNL d   1      31.665  45.639   7.840  0.00  0.00    -0.018 A 
ATOM      8  C   UNL d   1      32.893  45.351   7.234  0.00  0.00     0.015 A 
ATOM      9  C   UNL d   1      33.439  44.096   7.413  0.00  0.00     0.030 A 
ATOM     10  C   UNL d   1      32.784  43.146   8.174  0.00  0.00     0.036 A 
ATOM     11  C   UNL d   1      31.574  43.448   8.763  0.00  0.00     0.030 A 
ATOM     12  C   UNL d   1      30.991  44.712   8.603  0.00  0.00     0.015 A 
BRANCH  10  13
ATOM     13  N   UNL d   1      33.425  41.883   8.301  0.00  0.00    -0.309 N 
ATOM     14  C   UNL d   1      34.241  41.539   9.399  0.00  0.00     0.326 C 
ATOM     15  N   UNL d   1      34.707  40.215   9.503  0.00  0.00    -0.293 N 
ATOM     16  O   UNL d   1      34.574  42.361  10.294  0.00  0.00    -0.247 OA
ATOM     17  HN  UNL d   1      34.473  39.576   8.742  1.00  0.00     0.172 HD
ATOM     18  HN  UNL d   1      33.288  41.192   7.563  1.00  0.00     0.170 HD
BRANCH  15  19
ATOM     19  C   UNL d   1      35.476  39.691  10.577  0.00  0.00     0.132 A 
ATOM     20  C   UNL d   1      34.940  38.914  11.573  0.00  0.00     0.085 A 
ATOM     21  C   UNL d   1      35.980  38.600  12.419  0.00  0.00     0.079 A 
ATOM     22  O   UNL d   1      37.035  39.166  11.928  0.00  0.00    -0.241 OA
ATOM     23  N   UNL d   1      36.789  39.820  10.842  0.00  0.00    -0.245 N 
ATOM     24  HN  UNL d   1      37.468  40.340  10.286  1.00  0.00     0.196 HD
BRANCH  21  25
ATOM     25  C   UNL d   1      35.830  37.772  13.635  0.00  0.00     0.063 C 
ATOM     26  C   UNL d   1      36.916  36.704  13.625  0.00  0.00     0.012 C 
ENDBRANCH  21  25
ENDBRANCH  15  19
ENDBRANCH  10  13
ENDBRANCH   1   7
BRANCH   5  27
ATOM     27  N   UNL d   1      31.295  51.056   7.161  0.00  0.00    -0.323 N 
ATOM     28  HN  UNL d   1      32.282  51.311   7.131  1.00  0.00     0.169 HD
BRANCH  27  29
ATOM     29  C   UNL d   1      30.342  52.105   7.101  0.00  0.00     0.111 A 
ATOM     30  N   UNL d   1      30.354  53.172   7.927  0.00  0.00    -0.332 N 
ATOM     31  C   UNL d   1      29.424  54.142   7.831  0.00  0.00     0.080 A 
ATOM     32  HN  UNL d   1      31.082  53.245   8.638  1.00  0.00     0.168 HD
ATOM     33  C   UNL d   1      29.436  55.330   8.750  0.00  0.00     0.089 C 
ATOM     34  N   UNL d   1      28.446  54.086   6.907  0.00  0.00    -0.332 N 
ATOM     35  C   UNL d   1      28.422  53.032   6.080  0.00  0.00     0.108 A 
ATOM     36  HN  UNL d   1      27.744  54.822   6.839  1.00  0.00     0.168 HD
ATOM     37  C   UNL d   1      29.361  52.025   6.156  0.00  0.00     0.097 A 
BRANCH  35  38
ATOM     38  N   UNL d   1      27.378  52.957   5.088  0.00  0.00    -0.364 N 
ATOM     39  C   UNL d   1      27.679  53.155   3.697  0.00  0.00     0.154 C 
ATOM     40  C   UNL d   1      26.644  54.066   3.086  0.00  0.00     0.292 C 
ATOM     41  N   UNL d   1      25.292  53.728   3.416  0.00  0.00     0.091 N 
ATOM     42  C   UNL d   1      25.152  52.597   4.297  0.00  0.00     0.292 C 
ATOM     43  C   UNL d   1      26.010  52.681   5.521  0.00  0.00     0.154 C 
BRANCH  41  44
ATOM     44  C   UNL d   1      24.450  54.838   3.744  0.00  0.00     0.268 C 
ATOM     45  C   UNL d   1      23.089  54.414   4.251  0.00  0.00     0.037 C 
ENDBRANCH  41  44
ENDBRANCH  35  38
ENDBRANCH  27  29
ENDBRANCH   5  27
TORSDOF 8
ENDMDL
MODEL 7
REMARK VINA RESULT:      -7.9      4.916     10.996
REMARK  8 active torsions:
REMARK  status: ('A' for Active; 'I' for Inactive)
REMARK    1  A    between atoms: C_2  and  C_3 
REMARK    2  A    between atoms: C_5  and  N_6 
REMARK       I    between atoms: N_6  and  C_8 
REMARK       I    between atoms: C_8  and  N_10 
REMARK    3  A    between atoms: N_10  and  C_12 
REMARK    4  A    between atoms: C_15  and  C_16 
REMARK    5  A    between atoms: C_20  and  N_21 
REMARK    6  A    between atoms: N_21  and  C_23 
REMARK    7  A    between atoms: C_30  and  N_31 
REMARK    8  A    between atoms: N_34  and  C_35 
ROOT
ATOM      1  C   UNL d   1      29.289  46.299   8.033  0.00  0.00     0.034 A 
ATOM      2  C   UNL d   1      28.156  46.319   8.585  0.00  0.00     0.110 A 
ATOM      3  N   UNL d   1      27.258  47.230   8.310  0.00  0.00    -0.345 N 
ATOM      4  HN  UNL d   1      26.372  47.158   8.810  1.00  0.00     0.167 HD
ATOM      5  C   UNL d   1      27.358  48.132   7.542  0.00  0.00     0.150 A 
ATOM      6  S   UNL d   1      29.131  47.816   6.904  0.00  0.00    -0.052 SA
ENDROOT
BRANCH   1   7
ATOM      7  C   UNL d   1      30.542  45.533   8.013  0.00  0.00    -0.018 A 
ATOM      8  C   UNL d   1      30.399  44.160   8.244  0.00  0.00     0.015 A 
ATOM      9  C   UNL d   1      31.531  43.369   8.241  0.00  0.00     0.030 A 
ATOM     10  C   UNL d   1      32.776  43.925   8.014  0.00  0.00     0.036 A 
ATOM     11  C   UNL d   1      32.897  45.279   7.788  0.00  0.00     0.030 A 
ATOM     12  C   UNL d   1      31.770  46.112   7.784  0.00  0.00     0.015 A 
BRANCH  10  13
ATOM     13  N   UNL d   1      33.882  43.030   8.029  0.00  0.00    -0.309 N 
ATOM     14  C   UNL d   1      34.254  42.282   9.166  0.00  0.00     0.326 C 
ATOM     15  N   UNL d   1      35.268  41.316   9.034  0.00  0.00    -0.293 N 
ATOM     16  O   UNL d   1      33.721  42.437  10.297  0.00  0.00    -0.247 OA
ATOM     17  HN  UNL d   1      35.727  41.241   8.124  1.00  0.00     0.172 HD
ATOM     18  HN  UNL d   1      34.431  42.923   7.177  1.00  0.00     0.170 HD
BRANCH  15  19
ATOM     19  C   UNL d   1      35.710  40.435  10.058  0.00  0.00     0.132 A 
ATOM     20  C   UNL d   1      34.852  39.789  10.911  0.00  0.00     0.085 A 
ATOM     21  C   UNL d   1      35.640  39.034  11.752  0.00  0.00     0.079 A 
ATOM     22  O   UNL d   1      36.865  39.245  11.392  0.00  0.00    -0.241 OA
ATOM     23  N   UNL d   1      36.958  40.062  10.397  0.00  0.00    -0.245 N 
ATOM     24  HN  UNL d   1      37.821  40.370   9.950  1.00  0.00     0.196 HD
BRANCH  21  25
ATOM     25  C   UNL d   1      35.105  38.179  12.833  0.00  0.00     0.063 C 
ATOM     26  C   UNL d   1      36.274  37.494  13.526  0.00  0.00     0.012 C 
ENDBRANCH  21  25
ENDBRANCH  15  19
ENDBRANCH  10  13
ENDBRANCH   1   7
BRANCH   5  27
ATOM     27  N   UNL d   1      26.648  49.246   7.015  0.00  0.00    -0.323 N 
ATOM     28  HN  UNL d   1      25.742  49.070   6.580  1.00  0.00     0.169 HD
BRANCH  27  29
ATOM     29  C   UNL d   1      27.113  50.586   7.050  0.00  0.00     0.111 A 
ATOM     30  N   UNL d   1      26.415  51.602   7.599  0.00  0.00    -0.332 N 
ATOM     31  C   UNL d   1      26.900  52.859   7.607  0.00  0.00     0.080 A 
ATOM     32  HN  UNL d   1      25.504  51.414   8.017  1.00  0.00     0.168 HD
ATOM     33  C   UNL d   1      26.125  53.992   8.217  0.00  0.00     0.089 C 
ATOM     34  N   UNL d   1      28.099  53.151   7.067  0.00  0.00    -0.332 N 
ATOM     35  C   UNL d   1      28.801  52.151   6.519  0.00  0.00     0.108 A 
ATOM     36  HN  UNL d   1      28.460  54.104   7.075  1.00  0.00     0.168 HD
ATOM     37  C   UNL d   1      28.330  50.855   6.497  0.00  0.00     0.097 A 
BRANCH  35  38
ATOM     38  N   UNL d   1      30.085  52.450   5.934  0.00  0.00    -0.364 N 
ATOM     39  C   UNL d   1      30.537  53.810   5.826  0.00  0.00     0.154 C 
ATOM     40  C   UNL d   1      31.119  54.036   4.453  0.00  0.00     0.292 C 
ATOM     41  N   UNL d   1      32.026  53.014   4.022  0.00  0.00     0.091 N 
ATOM     42  C   UNL d   1      32.205  51.934   4.957  0.00  0.00     0.292 C 
ATOM     43  C   UNL d   1      30.917  51.351   5.451  0.00  0.00     0.154 C 
BRANCH  41  44
ATOM     44  C   UNL d   1      31.871  52.598   2.661  0.00  0.00     0.268 C 
ATOM     45  C   UNL d   1      31.152  53.622   1.812  0.00  0.00     0.037 C 
ENDBRANCH  41  44
ENDBRANCH  35  38
ENDBRANCH  27  29
ENDBRANCH   5  27
TORSDOF 8
ENDMDL
MODEL 8
REMARK VINA RESULT:      -7.9      4.639     12.119
REMARK  8 active torsions:
REMARK  status: ('A' for Active; 'I' for Inactive)
REMARK    1  A    between atoms: C_2  and  C_3 
REMARK    2  A    between atoms: C_5  and  N_6 
REMARK       I    between atoms: N_6  and  C_8 
REMARK       I    between atoms: C_8  and  N_10 
REMARK    3  A    between atoms: N_10  and  C_12 
REMARK    4  A    between atoms: C_15  and  C_16 
REMARK    5  A    between atoms: C_20  and  N_21 
REMARK    6  A    between atoms: N_21  and  C_23 
REMARK    7  A    between atoms: C_30  and  N_31 
REMARK    8  A    between atoms: N_34  and  C_35 
ROOT
ATOM      1  C   UNL d   1      28.769  46.010   8.298  0.00  0.00     0.034 A 
ATOM      2  C   UNL d   1      27.511  46.026   8.382  0.00  0.00     0.110 A 
ATOM      3  N   UNL d   1      26.816  47.131   8.295  0.00  0.00    -0.345 N 
ATOM      4  HN  UNL d   1      25.804  47.036   8.375  1.00  0.00     0.167 HD
ATOM      5  C   UNL d   1      27.231  48.233   8.132  0.00  0.00     0.150 A 
ATOM      6  S   UNL d   1      29.104  47.861   8.050  0.00  0.00    -0.052 SA
ENDROOT
BRANCH   1   7
ATOM      7  C   UNL d   1      29.910  45.086   8.332  0.00  0.00    -0.018 A 
ATOM      8  C   UNL d   1      31.047  45.526   7.645  0.00  0.00     0.015 A 
ATOM      9  C   UNL d   1      32.163  44.715   7.630  0.00  0.00     0.030 A 
ATOM     10  C   UNL d   1      32.155  43.494   8.280  0.00  0.00     0.036 A 
ATOM     11  C   UNL d   1      31.025  43.078   8.951  0.00  0.00     0.030 A 
ATOM     12  C   UNL d   1      29.874  43.875   8.987  0.00  0.00     0.015 A 
BRANCH  10  13
ATOM     13  N   UNL d   1      33.353  42.730   8.208  0.00  0.00    -0.309 N 
ATOM     14  C   UNL d   1      33.895  42.040   9.313  0.00  0.00     0.326 C 
ATOM     15  N   UNL d   1      34.998  41.193   9.102  0.00  0.00    -0.293 N 
ATOM     16  O   UNL d   1      33.437  42.145  10.482  0.00  0.00    -0.247 OA
ATOM     17  HN  UNL d   1      35.390  41.161   8.160  1.00  0.00     0.172 HD
ATOM     18  HN  UNL d   1      33.842  42.677   7.315  1.00  0.00     0.170 HD
BRANCH  15  19
ATOM     19  C   UNL d   1      35.616  40.378  10.090  0.00  0.00     0.132 A 
ATOM     20  C   UNL d   1      34.909  39.712  11.059  0.00  0.00     0.085 A 
ATOM     21  C   UNL d   1      35.839  39.037  11.818  0.00  0.00     0.079 A 
ATOM     22  O   UNL d   1      36.996  39.309  11.306  0.00  0.00    -0.241 OA
ATOM     23  N   UNL d   1      36.917  40.095  10.285  0.00  0.00    -0.245 N 
ATOM     24  HN  UNL d   1      37.698  40.439   9.728  1.00  0.00     0.196 HD
BRANCH  21  25
ATOM     25  C   UNL d   1      35.494  38.190  12.979  0.00  0.00     0.063 C 
ATOM     26  C   UNL d   1      36.669  37.264  13.265  0.00  0.00     0.012 C 
ENDBRANCH  21  25
ENDBRANCH  15  19
ENDBRANCH  10  13
ENDBRANCH   1   7
BRANCH   5  27
ATOM     27  N   UNL d   1      26.813  49.586   7.998  0.00  0.00    -0.323 N 
ATOM     28  HN  UNL d   1      26.579  50.098   8.848  1.00  0.00     0.169 HD
BRANCH  27  29
ATOM     29  C   UNL d   1      26.698  50.273   6.761  0.00  0.00     0.111 A 
ATOM     30  N   UNL d   1      27.681  51.034   6.238  0.00  0.00    -0.332 N 
ATOM     31  C   UNL d   1      27.522  51.669   5.060  0.00  0.00     0.080 A 
ATOM     32  HN  UNL d   1      28.561  51.130   6.743  1.00  0.00     0.168 HD
ATOM     33  C   UNL d   1      28.615  52.517   4.475  0.00  0.00     0.089 C 
ATOM     34  N   UNL d   1      26.376  51.568   4.359  0.00  0.00    -0.332 N 
ATOM     35  C   UNL d   1      25.392  50.815   4.868  0.00  0.00     0.108 A 
ATOM     36  HN  UNL d   1      26.261  52.051   3.468  1.00  0.00     0.168 HD
ATOM     37  C   UNL d   1      25.528  50.154   6.071  0.00  0.00     0.097 A 
BRANCH  35  38
ATOM     38  N   UNL d   1      24.159  50.702   4.130  0.00  0.00    -0.364 N 
ATOM     39  C   UNL d   1      24.175  50.575   2.698  0.00  0.00     0.154 C 
ATOM     40  C   UNL d   1      23.136  51.492   2.103  0.00  0.00     0.292 C 
ATOM     41  N   UNL d   1      21.857  51.428   2.746  0.00  0.00     0.091 N 
ATOM     42  C   UNL d   1      21.789  50.525   3.866  0.00  0.00     0.292 C 
ATOM     43  C   UNL d   1      22.893  50.720   4.859  0.00  0.00     0.154 C 
BRANCH  41  44
ATOM     44  C   UNL d   1      21.224  52.693   2.969  0.00  0.00     0.268 C 
ATOM     45  C   UNL d   1      20.264  53.073   1.864  0.00  0.00     0.037 C 
ENDBRANCH  41  44
ENDBRANCH  35  38
ENDBRANCH  27  29
ENDBRANCH   5  27
TORSDOF 8
ENDMDL
MODEL 9
REMARK VINA RESULT:      -7.8      4.546     12.602
REMARK  8 active torsions:
REMARK  status: ('A' for Active; 'I' for Inactive)
REMARK    1  A    between atoms: C_2  and  C_3 
REMARK    2  A    between atoms: C_5  and  N_6 
REMARK       I    between atoms: N_6  and  C_8 
REMARK       I    between atoms: C_8  and  N_10 
REMARK    3  A    between atoms: N_10  and  C_12 
REMARK    4  A    between atoms: C_15  and  C_16 
REMARK    5  A    between atoms: C_20  and  N_21 
REMARK    6  A    between atoms: N_21  and  C_23 
REMARK    7  A    between atoms: C_30  and  N_31 
REMARK    8  A    between atoms: N_34  and  C_35 
ROOT
ATOM      1  C   UNL d   1      29.733  46.143   8.072  0.00  0.00     0.034 A 
ATOM      2  C   UNL d   1      28.620  46.421   8.596  0.00  0.00     0.110 A 
ATOM      3  N   UNL d   1      27.890  47.430   8.196  0.00  0.00    -0.345 N 
ATOM      4  HN  UNL d   1      27.005  47.570   8.684  1.00  0.00     0.167 HD
ATOM      5  C   UNL d   1      28.140  48.202   7.326  0.00  0.00     0.150 A 
ATOM      6  S   UNL d   1      29.833  47.516   6.766  0.00  0.00    -0.052 SA
ENDROOT
BRANCH   1   7
ATOM      7  C   UNL d   1      30.837  45.180   8.168  0.00  0.00    -0.018 A 
ATOM      8  C   UNL d   1      32.106  45.708   7.901  0.00  0.00     0.015 A 
ATOM      9  C   UNL d   1      33.198  44.867   7.971  0.00  0.00     0.030 A 
ATOM     10  C   UNL d   1      33.039  43.533   8.298  0.00  0.00     0.036 A 
ATOM     11  C   UNL d   1      31.782  43.031   8.558  0.00  0.00     0.030 A 
ATOM     12  C   UNL d   1      30.650  43.856   8.497  0.00  0.00     0.015 A 
BRANCH  10  13
ATOM     13  N   UNL d   1      34.223  42.746   8.346  0.00  0.00    -0.309 N 
ATOM     14  C   UNL d   1      34.594  41.978   9.469  0.00  0.00     0.326 C 
ATOM     15  N   UNL d   1      35.704  41.120   9.361  0.00  0.00    -0.293 N 
ATOM     16  O   UNL d   1      33.979  42.022  10.567  0.00  0.00    -0.247 OA
ATOM     17  HN  UNL d   1      36.224  41.137   8.482  1.00  0.00     0.172 HD
ATOM     18  HN  UNL d   1      34.833  42.737   7.529  1.00  0.00     0.170 HD
BRANCH  15  19
ATOM     19  C   UNL d   1      36.165  40.232  10.371  0.00  0.00     0.132 A 
ATOM     20  C   UNL d   1      35.344  39.709  11.338  0.00  0.00     0.085 A 
ATOM     21  C   UNL d   1      36.139  38.903  12.123  0.00  0.00     0.079 A 
ATOM     22  O   UNL d   1      37.332  38.971  11.626  0.00  0.00    -0.241 OA
ATOM     23  N   UNL d   1      37.398  39.741  10.593  0.00  0.00    -0.245 N 
ATOM     24  HN  UNL d   1      38.233  39.941  10.043  1.00  0.00     0.196 HD
BRANCH  21  25
ATOM     25  C   UNL d   1      35.642  38.145  13.291  0.00  0.00     0.063 C 
ATOM     26  C   UNL d   1      36.627  37.023  13.590  0.00  0.00     0.012 C 
ENDBRANCH  21  25
ENDBRANCH  15  19
ENDBRANCH  10  13
ENDBRANCH   1   7
BRANCH   5  27
ATOM     27  N   UNL d   1      27.628  49.347   6.655  0.00  0.00    -0.323 N 
ATOM     28  HN  UNL d   1      28.277  49.897   6.092  1.00  0.00     0.169 HD
BRANCH  27  29
ATOM     29  C   UNL d   1      26.278  49.777   6.716  0.00  0.00     0.111 A 
ATOM     30  N   UNL d   1      25.241  48.948   6.953  0.00  0.00    -0.332 N 
ATOM     31  C   UNL d   1      23.974  49.406   6.999  0.00  0.00     0.080 A 
ATOM     32  HN  UNL d   1      25.420  47.955   7.101  1.00  0.00     0.168 HD
ATOM     33  C   UNL d   1      22.819  48.484   7.263  0.00  0.00     0.089 C 
ATOM     34  N   UNL d   1      23.695  50.710   6.810  0.00  0.00    -0.332 N 
ATOM     35  C   UNL d   1      24.715  51.544   6.573  0.00  0.00     0.108 A 
ATOM     36  HN  UNL d   1      22.734  51.051   6.845  1.00  0.00     0.168 HD
ATOM     37  C   UNL d   1      26.020  51.102   6.521  0.00  0.00     0.097 A 
BRANCH  35  38
ATOM     38  N   UNL d   1      24.428  52.942   6.365  0.00  0.00    -0.364 N 
ATOM     39  C   UNL d   1      23.569  53.358   5.291  0.00  0.00     0.154 C 
ATOM     40  C   UNL d   1      24.187  54.536   4.583  0.00  0.00     0.292 C 
ATOM     41  N   UNL d   1      24.673  55.561   5.458  0.00  0.00     0.091 N 
ATOM     42  C   UNL d   1      24.517  55.279   6.861  0.00  0.00     0.292 C 
ATOM     43  C   UNL d   1      25.027  53.929   7.261  0.00  0.00     0.154 C 
BRANCH  41  44
ATOM     44  C   UNL d   1      25.949  56.108   5.105  0.00  0.00     0.268 C 
ATOM     45  C   UNL d   1      26.340  55.811   3.674  0.00  0.00     0.037 C 
ENDBRANCH  41  44
ENDBRANCH  35  38
ENDBRANCH  27  29
ENDBRANCH   5  27
TORSDOF 8
ENDMDL
