MODEL 1
REMARK VINA RESULT:      -8.2      0.000      0.000
REMARK  8 active torsions:
REMARK  status: ('A' for Active; 'I' for Inactive)
REMARK    1  A    between atoms: C_2  and  N_3 
REMARK       I    between atoms: N_3  and  C_5 
REMARK    2  A    between atoms: C_5  and  C_7 
REMARK    3  A    between atoms: C_7  and  C_8 
REMARK    4  A    between atoms: N_11  and  C_12 
REMARK    5  A    between atoms: C_15  and  N_16 
REMARK    6  A    between atoms: N_16  and  C_18 
REMARK    7  A    between atoms: C_21  and  N_22 
REMARK    8  A    between atoms: C_33  and  O_34 
ROOT
ATOM      1  C   UNL d   1      28.481  48.663   6.512  0.00  0.00     0.682 A 
ATOM      2  N   UNL d   1      29.662  48.388   5.986  0.00  0.00    -0.176 N 
ATOM      3  HN  UNL d   1      30.061  48.982   5.259  1.00  0.00     0.186 HD
ATOM      4  C   UNL d   1      30.338  47.284   6.439  0.00  0.00     0.134 A 
ATOM      5  C   UNL d   1      29.741  46.513   7.428  0.00  0.00     0.038 A 
ATOM      6  C   UNL d   1      30.362  45.381   7.910  0.00  0.00     0.054 A 
ATOM      7  C   UNL d   1      29.779  44.602   8.866  0.00  0.00     0.069 A 
ATOM      8  C   UNL d   1      28.538  44.885   9.420  0.00  0.00     0.039 A 
ATOM      9  C   UNL d   1      27.895  46.037   8.939  0.00  0.00     0.034 A 
ATOM     10  C   UNL d   1      28.508  46.812   7.966  0.00  0.00     0.063 A 
ATOM     11  N   UNL d   1      27.890  47.906   7.485  0.00  0.00    -0.191 N 
ATOM     12  HN  UNL d   1      26.976  48.173   7.849  1.00  0.00     0.184 HD
ENDROOT
BRANCH   4  13
ATOM     13  N   UNL d   1      31.566  47.029   5.848  0.00  0.00    -0.341 N 
ATOM     14  HN  UNL d   1      31.539  46.812   4.851  1.00  0.00     0.167 HD
BRANCH  13  15
ATOM     15  C   UNL d   1      32.825  47.027   6.425  0.00  0.00     0.033 A 
ATOM     16  C   UNL d   1      33.653  45.941   6.212  0.00  0.00     0.032 A 
ATOM     17  C   UNL d   1      34.935  45.944   6.739  0.00  0.00     0.031 A 
ATOM     18  C   UNL d   1      35.442  46.992   7.480  0.00  0.00     0.030 A 
ATOM     19  C   UNL d   1      34.600  48.065   7.681  0.00  0.00     0.031 A 
ATOM     20  C   UNL d   1      33.327  48.102   7.177  0.00  0.00     0.032 A 
BRANCH  18  21
ATOM     21  N   UNL d   1      36.772  46.969   8.030  0.00  0.00    -0.378 N 
ATOM     22  C   UNL d   1      37.167  45.873   8.915  0.00  0.00     0.153 C 
ATOM     23  C   UNL d   1      38.639  45.592   8.687  0.00  0.00     0.291 C 
ATOM     24  N   UNL d   1      39.097  46.061   7.418  0.00  0.00     0.087 N 
ATOM     25  C   UNL d   1      38.638  45.260   6.299  0.00  0.00     0.310 C 
ATOM     26  C   UNL d   1      38.980  47.470   7.229  0.00  0.00     0.291 C 
ATOM     27  C   UNL d   1      37.663  48.049   7.672  0.00  0.00     0.153 C 
ENDBRANCH  18  21
ENDBRANCH  13  15
ENDBRANCH   4  13
BRANCH   1  28
ATOM     28  N   UNL d   1      27.701  49.796   6.088  0.00  0.00    -0.217 N 
ATOM     29  C   UNL d   1      26.705  50.405   6.961  0.00  0.00     0.141 C 
ATOM     30  C   UNL d   1      27.271  51.825   7.215  0.00  0.00     0.025 C 
ATOM     31  C   UNL d   1      27.647  52.482   5.948  0.00  0.00    -0.003 C 
ATOM     32  C   UNL d   1      27.353  51.710   4.707  0.00  0.00     0.025 C 
ATOM     33  C   UNL d   1      27.935  50.321   4.726  0.00  0.00     0.141 C 
BRANCH  31  34
ATOM     34  C   UNL d   1      27.598  53.948   5.862  0.00  0.00     0.107 C 
BRANCH  34  35
ATOM     35  C   UNL d   1      28.354  54.599   6.953  0.00  0.00     0.217 C 
ATOM     36  N   UNL d   1      27.736  55.350   7.999  0.00  0.00    -0.361 N 
ATOM     37  HN  UNL d   1      26.734  55.536   8.009  1.00  0.00     0.162 HD
ATOM     38  O   UNL d   1      29.617  54.515   7.012  0.00  0.00    -0.274 OA
BRANCH  36  39
ATOM     39  C   UNL d   1      28.630  55.838   9.063  0.00  0.00     0.118 C 
ATOM     40  C   UNL d   1      27.853  56.905   9.806  0.00  0.00     0.026 C 
ENDBRANCH  36  39
ENDBRANCH  34  35
ENDBRANCH  31  34
ENDBRANCH   1  28
BRANCH   7  41
ATOM     41  O   UNL d   1      30.406  43.458   9.349  0.00  0.00    -0.356 OA
ATOM     42  C   UNL d   1      31.828  43.392   9.397  0.00  0.00     0.210 C 
ENDBRANCH   7  41
TORSDOF 8
ENDMDL
MODEL 2
REMARK VINA RESULT:      -8.1      2.771      4.043
REMARK  8 active torsions:
REMARK  status: ('A' for Active; 'I' for Inactive)
REMARK    1  A    between atoms: C_2  and  N_3 
REMARK       I    between atoms: N_3  and  C_5 
REMARK    2  A    between atoms: C_5  and  C_7 
REMARK    3  A    between atoms: C_7  and  C_8 
REMARK    4  A    between atoms: N_11  and  C_12 
REMARK    5  A    between atoms: C_15  and  N_16 
REMARK    6  A    between atoms: N_16  and  C_18 
REMARK    7  A    between atoms: C_21  and  N_22 
REMARK    8  A    between atoms: C_33  and  O_34 
ROOT
ATOM      1  C   UNL d   1      27.628  47.981   7.449  0.00  0.00     0.682 A 
ATOM      2  N   UNL d   1      28.679  48.082   6.654  0.00  0.00    -0.176 N 
ATOM      3  HN  UNL d   1      28.736  48.823   5.955  1.00  0.00     0.186 HD
ATOM      4  C   UNL d   1      29.692  47.167   6.790  0.00  0.00     0.134 A 
ATOM      5  C   UNL d   1      29.555  46.180   7.758  0.00  0.00     0.038 A 
ATOM      6  C   UNL d   1      30.529  45.220   7.929  0.00  0.00     0.054 A 
ATOM      7  C   UNL d   1      30.399  44.233   8.861  0.00  0.00     0.069 A 
ATOM      8  C   UNL d   1      29.297  44.121   9.697  0.00  0.00     0.039 A 
ATOM      9  C   UNL d   1      28.297  45.093   9.534  0.00  0.00     0.034 A 
ATOM     10  C   UNL d   1      28.452  46.087   8.579  0.00  0.00     0.063 A 
ATOM     11  N   UNL d   1      27.490  47.010   8.403  0.00  0.00    -0.191 N 
ATOM     12  HN  UNL d   1      26.653  46.987   8.984  1.00  0.00     0.184 HD
ENDROOT
BRANCH   4  13
ATOM     13  N   UNL d   1      30.767  47.305   5.925  0.00  0.00    -0.341 N 
ATOM     14  HN  UNL d   1      30.531  47.555   4.965  1.00  0.00     0.167 HD
BRANCH  13  15
ATOM     15  C   UNL d   1      32.118  47.151   6.187  0.00  0.00     0.033 A 
ATOM     16  C   UNL d   1      32.716  47.984   7.114  0.00  0.00     0.032 A 
ATOM     17  C   UNL d   1      34.055  47.811   7.427  0.00  0.00     0.031 A 
ATOM     18  C   UNL d   1      34.843  46.834   6.853  0.00  0.00     0.030 A 
ATOM     19  C   UNL d   1      34.227  46.013   5.932  0.00  0.00     0.031 A 
ATOM     20  C   UNL d   1      32.906  46.150   5.595  0.00  0.00     0.032 A 
BRANCH  18  21
ATOM     21  N   UNL d   1      36.235  46.680   7.182  0.00  0.00    -0.378 N 
ATOM     22  C   UNL d   1      36.624  46.419   8.568  0.00  0.00     0.153 C 
ATOM     23  C   UNL d   1      37.849  45.527   8.552  0.00  0.00     0.291 C 
ATOM     24  N   UNL d   1      37.988  44.806   7.327  0.00  0.00     0.087 N 
ATOM     25  C   UNL d   1      37.037  43.721   7.177  0.00  0.00     0.310 C 
ATOM     26  C   UNL d   1      38.141  45.627   6.170  0.00  0.00     0.291 C 
ATOM     27  C   UNL d   1      37.193  46.794   6.107  0.00  0.00     0.153 C 
ENDBRANCH  18  21
ENDBRANCH  13  15
ENDBRANCH   4  13
BRANCH   1  28
ATOM     28  N   UNL d   1      26.518  48.893   7.367  0.00  0.00    -0.217 N 
ATOM     29  C   UNL d   1      26.718  50.317   7.130  0.00  0.00     0.141 C 
ATOM     30  C   UNL d   1      26.055  50.548   5.749  0.00  0.00     0.025 C 
ATOM     31  C   UNL d   1      24.697  49.973   5.708  0.00  0.00    -0.003 C 
ATOM     32  C   UNL d   1      24.212  49.368   6.982  0.00  0.00     0.025 C 
ATOM     33  C   UNL d   1      25.158  48.339   7.542  0.00  0.00     0.141 C 
BRANCH  31  34
ATOM     34  C   UNL d   1      23.693  50.575   4.819  0.00  0.00     0.107 C 
BRANCH  34  35
ATOM     35  C   UNL d   1      22.327  50.486   5.377  0.00  0.00     0.217 C 
ATOM     36  N   UNL d   1      21.475  49.355   5.195  0.00  0.00    -0.361 N 
ATOM     37  HN  UNL d   1      21.744  48.568   4.604  1.00  0.00     0.162 HD
ATOM     38  O   UNL d   1      21.838  51.434   6.061  0.00  0.00    -0.274 OA
BRANCH  36  39
ATOM     39  C   UNL d   1      20.188  49.389   5.909  0.00  0.00     0.118 C 
ATOM     40  C   UNL d   1      20.327  48.426   7.069  0.00  0.00     0.026 C 
ENDBRANCH  36  39
ENDBRANCH  34  35
ENDBRANCH  31  34
ENDBRANCH   1  28
BRANCH   7  41
ATOM     41  O   UNL d   1      31.383  43.264   9.030  0.00  0.00    -0.356 OA
ATOM     42  C   UNL d   1      32.347  43.042   8.005  0.00  0.00     0.210 C 
ENDBRANCH   7  41
TORSDOF 8
ENDMDL
MODEL 3
REMARK VINA RESULT:      -8.0      3.020      4.316
REMARK  8 active torsions:
REMARK  status: ('A' for Active; 'I' for Inactive)
REMARK    1  A    between atoms: C_2  and  N_3 
REMARK       I    between atoms: N_3  and  C_5 
REMARK    2  A    between atoms: C_5  and  C_7 
REMARK    3  A    between atoms: C_7  and  C_8 
REMARK    4  A    between atoms: N_11  and  C_12 
REMARK    5  A    between atoms: C_15  and  N_16 
REMARK    6  A    between atoms: N_16  and  C_18 
REMARK    7  A    between atoms: C_21  and  N_22 
REMARK    8  A    between atoms: C_33  and  O_34 
ROOT
ATOM      1  C   UNL d   1      27.763  47.882   7.428  0.00  0.00     0.682 A 
ATOM      2  N   UNL d   1      28.761  48.036   6.576  0.00  0.00    -0.176 N 
ATOM      3  HN  UNL d   1      28.749  48.788   5.887  1.00  0.00     0.186 HD
ATOM      4  C   UNL d   1      29.815  47.159   6.639  0.00  0.00     0.134 A 
ATOM      5  C   UNL d   1      29.772  46.154   7.596  0.00  0.00     0.038 A 
ATOM      6  C   UNL d   1      30.790  45.231   7.695  0.00  0.00     0.054 A 
ATOM      7  C   UNL d   1      30.752  44.226   8.616  0.00  0.00     0.069 A 
ATOM      8  C   UNL d   1      29.705  44.059   9.512  0.00  0.00     0.039 A 
ATOM      9  C   UNL d   1      28.661  44.993   9.423  0.00  0.00     0.034 A 
ATOM     10  C   UNL d   1      28.722  46.005   8.477  0.00  0.00     0.063 A 
ATOM     11  N   UNL d   1      27.717  46.893   8.371  0.00  0.00    -0.191 N 
ATOM     12  HN  UNL d   1      26.916  46.829   8.998  1.00  0.00     0.184 HD
ENDROOT
BRANCH   4  13
ATOM     13  N   UNL d   1      30.832  47.352   5.716  0.00  0.00    -0.341 N 
ATOM     14  HN  UNL d   1      30.558  47.281   4.736  1.00  0.00     0.167 HD
BRANCH  13  15
ATOM     15  C   UNL d   1      32.170  47.628   5.943  0.00  0.00     0.033 A 
ATOM     16  C   UNL d   1      32.502  48.589   6.881  0.00  0.00     0.032 A 
ATOM     17  C   UNL d   1      33.835  48.842   7.159  0.00  0.00     0.031 A 
ATOM     18  C   UNL d   1      34.874  48.176   6.540  0.00  0.00     0.030 A 
ATOM     19  C   UNL d   1      34.522  47.222   5.609  0.00  0.00     0.031 A 
ATOM     20  C   UNL d   1      33.216  46.940   5.306  0.00  0.00     0.032 A 
BRANCH  18  21
ATOM     21  N   UNL d   1      36.253  48.465   6.834  0.00  0.00    -0.378 N 
ATOM     22  C   UNL d   1      37.307  47.792   6.074  0.00  0.00     0.153 C 
ATOM     23  C   UNL d   1      38.469  48.755   5.931  0.00  0.00     0.291 C 
ATOM     24  N   UNL d   1      38.077  50.118   6.096  0.00  0.00     0.087 N 
ATOM     25  C   UNL d   1      37.329  50.651   4.974  0.00  0.00     0.310 C 
ATOM     26  C   UNL d   1      37.527  50.426   7.377  0.00  0.00     0.291 C 
ATOM     27  C   UNL d   1      36.528  49.421   7.881  0.00  0.00     0.153 C 
ENDBRANCH  18  21
ENDBRANCH  13  15
ENDBRANCH   4  13
BRANCH   1  28
ATOM     28  N   UNL d   1      26.615  48.751   7.424  0.00  0.00    -0.217 N 
ATOM     29  C   UNL d   1      26.755  50.197   7.304  0.00  0.00     0.141 C 
ATOM     30  C   UNL d   1      26.074  50.511   5.948  0.00  0.00     0.025 C 
ATOM     31  C   UNL d   1      24.740  49.886   5.865  0.00  0.00    -0.003 C 
ATOM     32  C   UNL d   1      24.289  49.160   7.086  0.00  0.00     0.025 C 
ATOM     33  C   UNL d   1      25.281  48.128   7.558  0.00  0.00     0.141 C 
BRANCH  31  34
ATOM     34  C   UNL d   1      23.707  50.516   5.032  0.00  0.00     0.107 C 
BRANCH  34  35
ATOM     35  C   UNL d   1      22.358  50.394   5.625  0.00  0.00     0.217 C 
ATOM     36  N   UNL d   1      21.493  49.283   5.388  0.00  0.00    -0.361 N 
ATOM     37  HN  UNL d   1      21.737  48.540   4.734  1.00  0.00     0.162 HD
ATOM     38  O   UNL d   1      21.898  51.292   6.392  0.00  0.00    -0.274 OA
BRANCH  36  39
ATOM     39  C   UNL d   1      20.229  49.272   6.144  0.00  0.00     0.118 C 
ATOM     40  C   UNL d   1      20.403  48.236   7.236  0.00  0.00     0.026 C 
ENDBRANCH  36  39
ENDBRANCH  34  35
ENDBRANCH  31  34
ENDBRANCH   1  28
BRANCH   7  41
ATOM     41  O   UNL d   1      31.780  43.293   8.713  0.00  0.00    -0.356 OA
ATOM     42  C   UNL d   1      32.488  43.140   9.940  0.00  0.00     0.210 C 
ENDBRANCH   7  41
TORSDOF 8
ENDMDL
MODEL 4
REMARK VINA RESULT:      -8.0      3.622      6.412
REMARK  8 active torsions:
REMARK  status: ('A' for Active; 'I' for Inactive)
REMARK    1  A    between atoms: C_2  and  N_3 
REMARK       I    between atoms: N_3  and  C_5 
REMARK    2  A    between atoms: C_5  and  C_7 
REMARK    3  A    between atoms: C_7  and  C_8 
REMARK    4  A    between atoms: N_11  and  C_12 
REMARK    5  A    between atoms: C_15  and  N_16 
REMARK    6  A    between atoms: N_16  and  C_18 
REMARK    7  A    between atoms: C_21  and  N_22 
REMARK    8  A    between atoms: C_33  and  O_34 
ROOT
ATOM      1  C   UNL d   1      28.173  50.249   6.356  0.00  0.00     0.682 A 
ATOM      2  N   UNL d   1      28.319  49.167   7.101  0.00  0.00    -0.176 N 
ATOM      3  HN  UNL d   1      29.242  48.874   7.421  1.00  0.00     0.186 HD
ATOM      4  C   UNL d   1      27.200  48.445   7.430  0.00  0.00     0.134 A 
ATOM      5  C   UNL d   1      25.972  48.892   6.961  0.00  0.00     0.038 A 
ATOM      6  C   UNL d   1      24.815  48.198   7.241  0.00  0.00     0.054 A 
ATOM      7  C   UNL d   1      23.604  48.614   6.770  0.00  0.00     0.069 A 
ATOM      8  C   UNL d   1      23.446  49.748   5.986  0.00  0.00     0.039 A 
ATOM      9  C   UNL d   1      24.617  50.465   5.693  0.00  0.00     0.034 A 
ATOM     10  C   UNL d   1      25.836  50.022   6.184  0.00  0.00     0.063 A 
ATOM     11  N   UNL d   1      26.965  50.692   5.892  0.00  0.00    -0.191 N 
ATOM     12  HN  UNL d   1      26.921  51.535   5.320  1.00  0.00     0.184 HD
ENDROOT
BRANCH   4  13
ATOM     13  N   UNL d   1      27.405  47.310   8.201  0.00  0.00    -0.341 N 
ATOM     14  HN  UNL d   1      26.632  47.049   8.815  1.00  0.00     0.167 HD
BRANCH  13  15
ATOM     15  C   UNL d   1      28.513  46.483   8.253  0.00  0.00     0.033 A 
ATOM     16  C   UNL d   1      29.489  46.616   7.283  0.00  0.00     0.032 A 
ATOM     17  C   UNL d   1      30.630  45.832   7.347  0.00  0.00     0.031 A 
ATOM     18  C   UNL d   1      30.852  44.905   8.345  0.00  0.00     0.030 A 
ATOM     19  C   UNL d   1      29.867  44.787   9.302  0.00  0.00     0.031 A 
ATOM     20  C   UNL d   1      28.725  45.544   9.276  0.00  0.00     0.032 A 
BRANCH  18  21
ATOM     21  N   UNL d   1      32.039  44.091   8.385  0.00  0.00    -0.378 N 
ATOM     22  C   UNL d   1      33.073  44.275   7.367  0.00  0.00     0.153 C 
ATOM     23  C   UNL d   1      34.419  44.009   8.012  0.00  0.00     0.291 C 
ATOM     24  N   UNL d   1      34.384  44.150   9.433  0.00  0.00     0.087 N 
ATOM     25  C   UNL d   1      34.296  45.527   9.881  0.00  0.00     0.310 C 
ATOM     26  C   UNL d   1      33.497  43.251  10.097  0.00  0.00     0.291 C 
ATOM     27  C   UNL d   1      32.146  43.118   9.447  0.00  0.00     0.153 C 
ENDBRANCH  18  21
ENDBRANCH  13  15
ENDBRANCH   4  13
BRANCH   1  28
ATOM     28  N   UNL d   1      29.294  51.059   5.957  0.00  0.00    -0.217 N 
ATOM     29  C   UNL d   1      30.419  51.296   6.853  0.00  0.00     0.141 C 
ATOM     30  C   UNL d   1      31.605  50.607   6.130  0.00  0.00     0.025 C 
ATOM     31  C   UNL d   1      31.681  51.024   4.717  0.00  0.00    -0.003 C 
ATOM     32  C   UNL d   1      30.685  52.047   4.289  0.00  0.00     0.025 C 
ATOM     33  C   UNL d   1      29.265  51.654   4.604  0.00  0.00     0.141 C 
BRANCH  31  34
ATOM     34  C   UNL d   1      32.987  51.027   4.044  0.00  0.00     0.107 C 
BRANCH  34  35
ATOM     35  C   UNL d   1      33.644  49.703   4.090  0.00  0.00     0.217 C 
ATOM     36  N   UNL d   1      33.130  48.547   3.427  0.00  0.00    -0.361 N 
ATOM     37  HN  UNL d   1      32.236  48.560   2.938  1.00  0.00     0.162 HD
ATOM     38  O   UNL d   1      34.721  49.531   4.736  0.00  0.00    -0.274 OA
BRANCH  36  39
ATOM     39  C   UNL d   1      33.968  47.338   3.490  0.00  0.00     0.118 C 
ATOM     40  C   UNL d   1      33.120  46.276   4.160  0.00  0.00     0.026 C 
ENDBRANCH  36  39
ENDBRANCH  34  35
ENDBRANCH  31  34
ENDBRANCH   1  28
BRANCH   7  41
ATOM     41  O   UNL d   1      22.438  47.911   7.052  0.00  0.00    -0.356 OA
ATOM     42  C   UNL d   1      21.209  48.611   7.227  0.00  0.00     0.210 C 
ENDBRANCH   7  41
TORSDOF 8
ENDMDL
MODEL 5
REMARK VINA RESULT:      -8.0      1.749      2.388
REMARK  8 active torsions:
REMARK  status: ('A' for Active; 'I' for Inactive)
REMARK    1  A    between atoms: C_2  and  N_3 
REMARK       I    between atoms: N_3  and  C_5 
REMARK    2  A    between atoms: C_5  and  C_7 
REMARK    3  A    between atoms: C_7  and  C_8 
REMARK    4  A    between atoms: N_11  and  C_12 
REMARK    5  A    between atoms: C_15  and  N_16 
REMARK    6  A    between atoms: N_16  and  C_18 
REMARK    7  A    between atoms: C_21  and  N_22 
REMARK    8  A    between atoms: C_33  and  O_34 
ROOT
ATOM      1  C   UNL d   1      28.499  48.710   6.461  0.00  0.00     0.682 A 
ATOM      2  N   UNL d   1      29.644  48.435   5.859  0.00  0.00    -0.176 N 
ATOM      3  HN  UNL d   1      29.996  49.029   5.108  1.00  0.00     0.186 HD
ATOM      4  C   UNL d   1      30.348  47.332   6.269  0.00  0.00     0.134 A 
ATOM      5  C   UNL d   1      29.816  46.560   7.295  0.00  0.00     0.038 A 
ATOM      6  C   UNL d   1      30.467  45.428   7.736  0.00  0.00     0.054 A 
ATOM      7  C   UNL d   1      29.946  44.650   8.727  0.00  0.00     0.069 A 
ATOM      8  C   UNL d   1      28.744  44.933   9.360  0.00  0.00     0.039 A 
ATOM      9  C   UNL d   1      28.071  46.084   8.921  0.00  0.00     0.034 A 
ATOM     10  C   UNL d   1      28.620  46.859   7.911  0.00  0.00     0.063 A 
ATOM     11  N   UNL d   1      27.973  47.953   7.470  0.00  0.00    -0.191 N 
ATOM     12  HN  UNL d   1      27.083  48.219   7.891  1.00  0.00     0.184 HD
ENDROOT
BRANCH   4  13
ATOM     13  N   UNL d   1      31.536  47.076   5.601  0.00  0.00    -0.341 N 
ATOM     14  HN  UNL d   1      31.494  46.344   4.891  1.00  0.00     0.167 HD
BRANCH  13  15
ATOM     15  C   UNL d   1      32.772  47.677   5.765  0.00  0.00     0.033 A 
ATOM     16  C   UNL d   1      33.198  47.986   7.043  0.00  0.00     0.032 A 
ATOM     17  C   UNL d   1      34.453  48.542   7.232  0.00  0.00     0.031 A 
ATOM     18  C   UNL d   1      35.322  48.810   6.193  0.00  0.00     0.030 A 
ATOM     19  C   UNL d   1      34.879  48.495   4.926  0.00  0.00     0.031 A 
ATOM     20  C   UNL d   1      33.646  47.944   4.697  0.00  0.00     0.032 A 
BRANCH  18  21
ATOM     21  N   UNL d   1      36.617  49.401   6.410  0.00  0.00    -0.378 N 
ATOM     22  C   UNL d   1      37.537  49.553   5.282  0.00  0.00     0.153 C 
ATOM     23  C   UNL d   1      38.343  50.817   5.503  0.00  0.00     0.291 C 
ATOM     24  N   UNL d   1      37.701  51.731   6.394  0.00  0.00     0.087 N 
ATOM     25  C   UNL d   1      36.558  52.407   5.812  0.00  0.00     0.310 C 
ATOM     26  C   UNL d   1      37.486  51.223   7.710  0.00  0.00     0.291 C 
ATOM     27  C   UNL d   1      36.945  49.819   7.753  0.00  0.00     0.153 C 
ENDBRANCH  18  21
ENDBRANCH  13  15
ENDBRANCH   4  13
BRANCH   1  28
ATOM     28  N   UNL d   1      27.693  49.843   6.087  0.00  0.00    -0.217 N 
ATOM     29  C   UNL d   1      26.743  50.440   7.016  0.00  0.00     0.141 C 
ATOM     30  C   UNL d   1      27.315  51.861   7.250  0.00  0.00     0.025 C 
ATOM     31  C   UNL d   1      27.622  52.529   5.971  0.00  0.00    -0.003 C 
ATOM     32  C   UNL d   1      27.266  51.766   4.741  0.00  0.00     0.025 C 
ATOM     33  C   UNL d   1      27.853  50.378   4.718  0.00  0.00     0.141 C 
BRANCH  31  34
ATOM     34  C   UNL d   1      27.562  53.996   5.899  0.00  0.00     0.107 C 
BRANCH  34  35
ATOM     35  C   UNL d   1      28.318  54.641   6.993  0.00  0.00     0.217 C 
ATOM     36  N   UNL d   1      27.703  55.404   8.032  0.00  0.00    -0.361 N 
ATOM     37  HN  UNL d   1      26.703  55.602   8.034  1.00  0.00     0.162 HD
ATOM     38  O   UNL d   1      29.580  54.542   7.060  0.00  0.00    -0.274 OA
BRANCH  36  39
ATOM     39  C   UNL d   1      28.595  55.885   9.100  0.00  0.00     0.118 C 
ATOM     40  C   UNL d   1      27.821  56.954   9.842  0.00  0.00     0.026 C 
ENDBRANCH  36  39
ENDBRANCH  34  35
ENDBRANCH  31  34
ENDBRANCH   1  28
BRANCH   7  41
ATOM     41  O   UNL d   1      30.603  43.506   9.170  0.00  0.00    -0.356 OA
ATOM     42  C   UNL d   1      32.010  43.534   9.390  0.00  0.00     0.210 C 
ENDBRANCH   7  41
TORSDOF 8
ENDMDL
MODEL 6
REMARK VINA RESULT:      -7.9      2.536      3.719
REMARK  8 active torsions:
REMARK  status: ('A' for Active; 'I' for Inactive)
REMARK    1  A    between atoms: C_2  and  N_3 
REMARK       I    between atoms: N_3  and  C_5 
REMARK    2  A    between atoms: C_5  and  C_7 
REMARK    3  A    between atoms: C_7  and  C_8 
REMARK    4  A    between atoms: N_11  and  C_12 
REMARK    5  A    between atoms: C_15  and  N_16 
REMARK    6  A    between atoms: N_16  and  C_18 
REMARK    7  A    between atoms: C_21  and  N_22 
REMARK    8  A    between atoms: C_33  and  O_34 
ROOT
ATOM      1  C   UNL d   1      27.584  48.108   7.377  0.00  0.00     0.682 A 
ATOM      2  N   UNL d   1      28.673  48.183   6.630  0.00  0.00    -0.176 N 
ATOM      3  HN  UNL d   1      28.777  48.919   5.932  1.00  0.00     0.186 HD
ATOM      4  C   UNL d   1      29.657  47.247   6.817  0.00  0.00     0.134 A 
ATOM      5  C   UNL d   1      29.455  46.267   7.781  0.00  0.00     0.038 A 
ATOM      6  C   UNL d   1      30.398  45.288   8.000  0.00  0.00     0.054 A 
ATOM      7  C   UNL d   1      30.204  44.308   8.928  0.00  0.00     0.069 A 
ATOM      8  C   UNL d   1      29.062  44.223   9.713  0.00  0.00     0.039 A 
ATOM      9  C   UNL d   1      28.092  45.216   9.500  0.00  0.00     0.034 A 
ATOM     10  C   UNL d   1      28.313  46.202   8.550  0.00  0.00     0.063 A 
ATOM     11  N   UNL d   1      27.381  47.145   8.326  0.00  0.00    -0.191 N 
ATOM     12  HN  UNL d   1      26.517  47.143   8.867  1.00  0.00     0.184 HD
ENDROOT
BRANCH   4  13
ATOM     13  N   UNL d   1      30.775  47.358   6.002  0.00  0.00    -0.341 N 
ATOM     14  HN  UNL d   1      30.588  47.596   5.028  1.00  0.00     0.167 HD
BRANCH  13  15
ATOM     15  C   UNL d   1      32.109  47.190   6.330  0.00  0.00     0.033 A 
ATOM     16  C   UNL d   1      32.675  48.034   7.268  0.00  0.00     0.032 A 
ATOM     17  C   UNL d   1      33.995  47.849   7.647  0.00  0.00     0.031 A 
ATOM     18  C   UNL d   1      34.795  46.850   7.131  0.00  0.00     0.030 A 
ATOM     19  C   UNL d   1      34.211  46.019   6.197  0.00  0.00     0.031 A 
ATOM     20  C   UNL d   1      32.910  46.167   5.796  0.00  0.00     0.032 A 
BRANCH  18  21
ATOM     21  N   UNL d   1      36.168  46.684   7.528  0.00  0.00    -0.378 N 
ATOM     22  C   UNL d   1      36.474  46.148   8.855  0.00  0.00     0.153 C 
ATOM     23  C   UNL d   1      37.745  45.329   8.748  0.00  0.00     0.291 C 
ATOM     24  N   UNL d   1      38.006  44.891   7.414  0.00  0.00     0.087 N 
ATOM     25  C   UNL d   1      37.128  43.827   6.966  0.00  0.00     0.310 C 
ATOM     26  C   UNL d   1      38.193  45.945   6.470  0.00  0.00     0.291 C 
ATOM     27  C   UNL d   1      37.189  47.061   6.579  0.00  0.00     0.153 C 
ENDBRANCH  18  21
ENDBRANCH  13  15
ENDBRANCH   4  13
BRANCH   1  28
ATOM     28  N   UNL d   1      26.498  49.044   7.240  0.00  0.00    -0.217 N 
ATOM     29  C   UNL d   1      26.739  50.475   7.105  0.00  0.00     0.141 C 
ATOM     30  C   UNL d   1      26.217  50.794   5.681  0.00  0.00     0.025 C 
ATOM     31  C   UNL d   1      24.862  50.248   5.477  0.00  0.00    -0.003 C 
ATOM     32  C   UNL d   1      24.248  49.582   6.661  0.00  0.00     0.025 C 
ATOM     33  C   UNL d   1      25.122  48.505   7.250  0.00  0.00     0.141 C 
BRANCH  31  34
ATOM     34  C   UNL d   1      23.958  50.917   4.531  0.00  0.00     0.107 C 
BRANCH  34  35
ATOM     35  C   UNL d   1      24.635  51.270   3.265  0.00  0.00     0.217 C 
ATOM     36  N   UNL d   1      25.032  50.305   2.290  0.00  0.00    -0.361 N 
ATOM     37  HN  UNL d   1      24.930  49.303   2.451  1.00  0.00     0.162 HD
ATOM     38  O   UNL d   1      24.898  52.476   2.980  0.00  0.00    -0.274 OA
BRANCH  36  39
ATOM     39  C   UNL d   1      25.596  50.840   1.040  0.00  0.00     0.118 C 
ATOM     40  C   UNL d   1      24.559  50.578  -0.033  0.00  0.00     0.026 C 
ENDBRANCH  36  39
ENDBRANCH  34  35
ENDBRANCH  31  34
ENDBRANCH   1  28
BRANCH   7  41
ATOM     41  O   UNL d   1      31.157  43.318   9.146  0.00  0.00    -0.356 OA
ATOM     42  C   UNL d   1      32.275  43.201   8.271  0.00  0.00     0.210 C 
ENDBRANCH   7  41
TORSDOF 8
ENDMDL
MODEL 7
REMARK VINA RESULT:      -7.5      2.549      9.037
REMARK  8 active torsions:
REMARK  status: ('A' for Active; 'I' for Inactive)
REMARK    1  A    between atoms: C_2  and  N_3 
REMARK       I    between atoms: N_3  and  C_5 
REMARK    2  A    between atoms: C_5  and  C_7 
REMARK    3  A    between atoms: C_7  and  C_8 
REMARK    4  A    between atoms: N_11  and  C_12 
REMARK    5  A    between atoms: C_15  and  N_16 
REMARK    6  A    between atoms: N_16  and  C_18 
REMARK    7  A    between atoms: C_21  and  N_22 
REMARK    8  A    between atoms: C_33  and  O_34 
ROOT
ATOM      1  C   UNL d   1      32.130  45.782   7.904  0.00  0.00     0.682 A 
ATOM      2  N   UNL d   1      32.056  46.750   7.008  0.00  0.00    -0.176 N 
ATOM      3  HN  UNL d   1      32.887  47.064   6.508  1.00  0.00     0.186 HD
ATOM      4  C   UNL d   1      30.834  47.324   6.766  0.00  0.00     0.134 A 
ATOM      5  C   UNL d   1      29.738  46.855   7.481  0.00  0.00     0.038 A 
ATOM      6  C   UNL d   1      28.489  47.405   7.298  0.00  0.00     0.054 A 
ATOM      7  C   UNL d   1      27.409  46.969   8.007  0.00  0.00     0.069 A 
ATOM      8  C   UNL d   1      27.482  45.954   8.951  0.00  0.00     0.039 A 
ATOM      9  C   UNL d   1      28.750  45.384   9.148  0.00  0.00     0.034 A 
ATOM     10  C   UNL d   1      29.833  45.845   8.415  0.00  0.00     0.063 A 
ATOM     11  N   UNL d   1      31.055  45.318   8.610  0.00  0.00    -0.191 N 
ATOM     12  HN  UNL d   1      31.181  44.568   9.289  1.00  0.00     0.184 HD
ENDROOT
BRANCH   4  13
ATOM     13  N   UNL d   1      30.807  48.344   5.828  0.00  0.00    -0.341 N 
ATOM     14  HN  UNL d   1      31.124  48.091   4.892  1.00  0.00     0.167 HD
BRANCH  13  15
ATOM     15  C   UNL d   1      30.408  49.660   5.986  0.00  0.00     0.033 A 
ATOM     16  C   UNL d   1      29.236  50.078   5.383  0.00  0.00     0.032 A 
ATOM     17  C   UNL d   1      28.794  51.378   5.573  0.00  0.00     0.031 A 
ATOM     18  C   UNL d   1      29.472  52.299   6.346  0.00  0.00     0.030 A 
ATOM     19  C   UNL d   1      30.638  51.862   6.938  0.00  0.00     0.031 A 
ATOM     20  C   UNL d   1      31.109  50.586   6.777  0.00  0.00     0.032 A 
BRANCH  18  21
ATOM     21  N   UNL d   1      29.002  53.649   6.518  0.00  0.00    -0.378 N 
ATOM     22  C   UNL d   1      28.075  54.219   5.541  0.00  0.00     0.153 C 
ATOM     23  C   UNL d   1      27.143  55.163   6.275  0.00  0.00     0.291 C 
ATOM     24  N   UNL d   1      27.068  54.885   7.673  0.00  0.00     0.087 N 
ATOM     25  C   UNL d   1      26.314  53.687   7.991  0.00  0.00     0.310 C 
ATOM     26  C   UNL d   1      28.307  55.010   8.370  0.00  0.00     0.291 C 
ATOM     27  C   UNL d   1      29.480  54.381   7.668  0.00  0.00     0.153 C 
ENDBRANCH  18  21
ENDBRANCH  13  15
ENDBRANCH   4  13
BRANCH   1  28
ATOM     28  N   UNL d   1      33.374  45.132   8.225  0.00  0.00    -0.217 N 
ATOM     29  C   UNL d   1      34.188  44.495   7.197  0.00  0.00     0.141 C 
ATOM     30  C   UNL d   1      35.485  45.344   7.190  0.00  0.00     0.025 C 
ATOM     31  C   UNL d   1      36.016  45.515   8.556  0.00  0.00    -0.003 C 
ATOM     32  C   UNL d   1      35.272  44.803   9.634  0.00  0.00     0.025 C 
ATOM     33  C   UNL d   1      33.799  45.122   9.641  0.00  0.00     0.141 C 
BRANCH  31  34
ATOM     34  C   UNL d   1      37.462  45.702   8.741  0.00  0.00     0.107 C 
BRANCH  34  35
ATOM     35  C   UNL d   1      37.916  47.035   8.289  0.00  0.00     0.217 C 
ATOM     36  N   UNL d   1      37.026  48.117   8.014  0.00  0.00    -0.361 N 
ATOM     37  HN  UNL d   1      36.014  48.004   8.050  1.00  0.00     0.162 HD
ATOM     38  O   UNL d   1      39.148  47.283   8.123  0.00  0.00    -0.274 OA
BRANCH  36  39
ATOM     39  C   UNL d   1      37.655  49.405   7.678  0.00  0.00     0.118 C 
ATOM     40  C   UNL d   1      36.571  50.246   7.036  0.00  0.00     0.026 C 
ENDBRANCH  36  39
ENDBRANCH  34  35
ENDBRANCH  31  34
ENDBRANCH   1  28
BRANCH   7  41
ATOM     41  O   UNL d   1      26.148  47.527   7.823  0.00  0.00    -0.356 OA
ATOM     42  C   UNL d   1      26.020  48.810   7.215  0.00  0.00     0.210 C 
ENDBRANCH   7  41
TORSDOF 8
ENDMDL
MODEL 8
REMARK VINA RESULT:      -7.4      2.918      3.915
REMARK  8 active torsions:
REMARK  status: ('A' for Active; 'I' for Inactive)
REMARK    1  A    between atoms: C_2  and  N_3 
REMARK       I    between atoms: N_3  and  C_5 
REMARK    2  A    between atoms: C_5  and  C_7 
REMARK    3  A    between atoms: C_7  and  C_8 
REMARK    4  A    between atoms: N_11  and  C_12 
REMARK    5  A    between atoms: C_15  and  N_16 
REMARK    6  A    between atoms: N_16  and  C_18 
REMARK    7  A    between atoms: C_21  and  N_22 
REMARK    8  A    between atoms: C_33  and  O_34 
ROOT
ATOM      1  C   UNL d   1      27.968  48.375   7.042  0.00  0.00     0.682 A 
ATOM      2  N   UNL d   1      29.017  48.307   6.240  0.00  0.00    -0.176 N 
ATOM      3  HN  UNL d   1      29.142  48.982   5.485  1.00  0.00     0.186 HD
ATOM      4  C   UNL d   1      29.932  47.306   6.445  0.00  0.00     0.134 A 
ATOM      5  C   UNL d   1      29.704  46.416   7.487  0.00  0.00     0.038 A 
ATOM      6  C   UNL d   1      30.576  45.377   7.731  0.00  0.00     0.054 A 
ATOM      7  C   UNL d   1      30.355  44.483   8.736  0.00  0.00     0.069 A 
ATOM      8  C   UNL d   1      29.254  44.550   9.580  0.00  0.00     0.039 A 
ATOM      9  C   UNL d   1      28.357  45.604   9.343  0.00  0.00     0.034 A 
ATOM     10  C   UNL d   1      28.604  46.499   8.314  0.00  0.00     0.063 A 
ATOM     11  N   UNL d   1      27.740  47.501   8.068  0.00  0.00    -0.191 N 
ATOM     12  HN  UNL d   1      26.910  47.608   8.649  1.00  0.00     0.184 HD
ENDROOT
BRANCH   4  13
ATOM     13  N   UNL d   1      31.008  47.267   5.571  0.00  0.00    -0.341 N 
ATOM     14  HN  UNL d   1      30.806  46.901   4.640  1.00  0.00     0.167 HD
BRANCH  13  15
ATOM     15  C   UNL d   1      32.318  47.655   5.789  0.00  0.00     0.033 A 
ATOM     16  C   UNL d   1      32.566  48.712   6.646  0.00  0.00     0.032 A 
ATOM     17  C   UNL d   1      33.874  49.082   6.916  0.00  0.00     0.031 A 
ATOM     18  C   UNL d   1      34.967  48.444   6.366  0.00  0.00     0.030 A 
ATOM     19  C   UNL d   1      34.698  47.393   5.514  0.00  0.00     0.031 A 
ATOM     20  C   UNL d   1      33.421  46.995   5.222  0.00  0.00     0.032 A 
BRANCH  18  21
ATOM     21  N   UNL d   1      36.317  48.854   6.649  0.00  0.00    -0.378 N 
ATOM     22  C   UNL d   1      37.322  48.808   5.587  0.00  0.00     0.153 C 
ATOM     23  C   UNL d   1      38.289  49.954   5.806  0.00  0.00     0.291 C 
ATOM     24  N   UNL d   1      37.731  51.000   6.603  0.00  0.00     0.087 N 
ATOM     25  C   UNL d   1      36.740  51.798   5.908  0.00  0.00     0.310 C 
ATOM     26  C   UNL d   1      37.357  50.604   7.922  0.00  0.00     0.291 C 
ATOM     27  C   UNL d   1      36.613  49.298   7.992  0.00  0.00     0.153 C 
ENDBRANCH  18  21
ENDBRANCH  13  15
ENDBRANCH   4  13
BRANCH   1  28
ATOM     28  N   UNL d   1      26.955  49.388   6.890  0.00  0.00    -0.217 N 
ATOM     29  C   UNL d   1      27.287  50.736   6.446  0.00  0.00     0.141 C 
ATOM     30  C   UNL d   1      26.560  50.853   5.082  0.00  0.00     0.025 C 
ATOM     31  C   UNL d   1      25.150  50.435   5.193  0.00  0.00    -0.003 C 
ATOM     32  C   UNL d   1      24.691  50.063   6.562  0.00  0.00     0.025 C 
ATOM     33  C   UNL d   1      25.561  49.018   7.212  0.00  0.00     0.141 C 
BRANCH  31  34
ATOM     34  C   UNL d   1      24.158  51.021   4.282  0.00  0.00     0.107 C 
BRANCH  34  35
ATOM     35  C   UNL d   1      24.689  51.195   2.913  0.00  0.00     0.217 C 
ATOM     36  N   UNL d   1      25.067  52.461   2.372  0.00  0.00    -0.361 N 
ATOM     37  HN  UNL d   1      24.924  53.331   2.884  1.00  0.00     0.162 HD
ATOM     38  O   UNL d   1      24.837  50.202   2.140  0.00  0.00    -0.274 OA
BRANCH  36  39
ATOM     39  C   UNL d   1      25.677  52.438   1.032  0.00  0.00     0.118 C 
ATOM     40  C   UNL d   1      27.150  52.724   1.237  0.00  0.00     0.026 C 
ENDBRANCH  36  39
ENDBRANCH  34  35
ENDBRANCH  31  34
ENDBRANCH   1  28
BRANCH   7  41
ATOM     41  O   UNL d   1      31.235  43.434   8.979  0.00  0.00    -0.356 OA
ATOM     42  C   UNL d   1      32.232  43.104   8.015  0.00  0.00     0.210 C 
ENDBRANCH   7  41
TORSDOF 8
ENDMDL
MODEL 9
REMARK VINA RESULT:      -7.4      3.232      8.599
REMARK  8 active torsions:
REMARK  status: ('A' for Active; 'I' for Inactive)
REMARK    1  A    between atoms: C_2  and  N_3 
REMARK       I    between atoms: N_3  and  C_5 
REMARK    2  A    between atoms: C_5  and  C_7 
REMARK    3  A    between atoms: C_7  and  C_8 
REMARK    4  A    between atoms: N_11  and  C_12 
REMARK    5  A    between atoms: C_15  and  N_16 
REMARK    6  A    between atoms: N_16  and  C_18 
REMARK    7  A    between atoms: C_21  and  N_22 
REMARK    8  A    between atoms: C_33  and  O_34 
ROOT
ATOM      1  C   UNL d   1      35.113  47.493   7.235  0.00  0.00     0.682 A 
ATOM      2  N   UNL d   1      33.970  47.518   6.570  0.00  0.00    -0.176 N 
ATOM      3  HN  UNL d   1      33.824  48.179   5.808  1.00  0.00     0.186 HD
ATOM      4  C   UNL d   1      32.986  46.633   6.931  0.00  0.00     0.134 A 
ATOM      5  C   UNL d   1      33.244  45.760   7.980  0.00  0.00     0.038 A 
ATOM      6  C   UNL d   1      32.288  44.862   8.403  0.00  0.00     0.054 A 
ATOM      7  C   UNL d   1      32.520  44.013   9.444  0.00  0.00     0.069 A 
ATOM      8  C   UNL d   1      33.717  43.985  10.146  0.00  0.00     0.039 A 
ATOM      9  C   UNL d   1      34.702  44.894   9.725  0.00  0.00     0.034 A 
ATOM     10  C   UNL d   1      34.441  45.748   8.664  0.00  0.00     0.063 A 
ATOM     11  N   UNL d   1      35.371  46.635   8.267  0.00  0.00    -0.191 N 
ATOM     12  HN  UNL d   1      36.274  46.668   8.739  1.00  0.00     0.184 HD
ENDROOT
BRANCH   4  13
ATOM     13  N   UNL d   1      31.801  46.705   6.215  0.00  0.00    -0.341 N 
ATOM     14  HN  UNL d   1      31.755  46.122   5.379  1.00  0.00     0.167 HD
BRANCH  13  15
ATOM     15  C   UNL d   1      30.670  47.459   6.479  0.00  0.00     0.033 A 
ATOM     16  C   UNL d   1      30.668  48.799   6.136  0.00  0.00     0.032 A 
ATOM     17  C   UNL d   1      29.528  49.558   6.345  0.00  0.00     0.031 A 
ATOM     18  C   UNL d   1      28.369  49.042   6.890  0.00  0.00     0.030 A 
ATOM     19  C   UNL d   1      28.392  47.705   7.225  0.00  0.00     0.031 A 
ATOM     20  C   UNL d   1      29.497  46.919   7.033  0.00  0.00     0.032 A 
BRANCH  18  21
ATOM     21  N   UNL d   1      27.200  49.852   7.112  0.00  0.00    -0.378 N 
ATOM     22  C   UNL d   1      27.310  51.309   7.048  0.00  0.00     0.153 C 
ATOM     23  C   UNL d   1      26.010  51.854   6.492  0.00  0.00     0.291 C 
ATOM     24  N   UNL d   1      25.277  50.878   5.750  0.00  0.00     0.087 N 
ATOM     25  C   UNL d   1      25.855  50.576   4.454  0.00  0.00     0.310 C 
ATOM     26  C   UNL d   1      24.880  49.735   6.505  0.00  0.00     0.291 C 
ATOM     27  C   UNL d   1      25.958  49.170   7.391  0.00  0.00     0.153 C 
ENDBRANCH  18  21
ENDBRANCH  13  15
ENDBRANCH   4  13
BRANCH   1  28
ATOM     28  N   UNL d   1      36.195  48.392   6.927  0.00  0.00    -0.217 N 
ATOM     29  C   UNL d   1      36.047  49.450   5.935  0.00  0.00     0.141 C 
ATOM     30  C   UNL d   1      36.187  50.747   6.771  0.00  0.00     0.025 C 
ATOM     31  C   UNL d   1      37.384  50.700   7.631  0.00  0.00    -0.003 C 
ATOM     32  C   UNL d   1      38.240  49.488   7.483  0.00  0.00     0.025 C 
ATOM     33  C   UNL d   1      37.472  48.201   7.646  0.00  0.00     0.141 C 
BRANCH  31  34
ATOM     34  C   UNL d   1      38.049  51.957   8.000  0.00  0.00     0.107 C 
BRANCH  34  35
ATOM     35  C   UNL d   1      37.986  52.962   6.917  0.00  0.00     0.217 C 
ATOM     36  N   UNL d   1      37.151  54.120   6.966  0.00  0.00    -0.361 N 
ATOM     37  HN  UNL d   1      36.497  54.279   7.731  1.00  0.00     0.162 HD
ATOM     38  O   UNL d   1      38.688  52.837   5.869  0.00  0.00    -0.274 OA
BRANCH  36  39
ATOM     39  C   UNL d   1      37.293  55.069   5.850  0.00  0.00     0.118 C 
ATOM     40  C   UNL d   1      37.965  56.298   6.428  0.00  0.00     0.026 C 
ENDBRANCH  36  39
ENDBRANCH  34  35
ENDBRANCH  31  34
ENDBRANCH   1  28
BRANCH   7  41
ATOM     41  O   UNL d   1      31.552  43.110   9.871  0.00  0.00    -0.356 OA
ATOM     42  C   UNL d   1      30.191  43.294   9.493  0.00  0.00     0.210 C 
ENDBRANCH   7  41
TORSDOF 8
ENDMDL
