MODEL 1
REMARK VINA RESULT:      -7.6      0.000      0.000
REMARK  8 active torsions:
REMARK  status: ('A' for Active; 'I' for Inactive)
REMARK    1  A    between atoms: C_2  and  N_3 
REMARK    2  A    between atoms: N_3  and  C_4 
REMARK    3  A    between atoms: N_3  and  C_6 
REMARK    4  A    between atoms: C_6  and  C_7 
REMARK    5  A    between atoms: C_10  and  C_11 
REMARK    6  A    between atoms: C_12  and  C_13 
REMARK    7  A    between atoms: C_16  and  C_17 
REMARK    8  A    between atoms: C_17  and  N_18 
ROOT
ATOM      1  C   UNL d   1      29.735  46.129   8.098  0.00  0.00     0.113 A 
ATOM      2  C   UNL d   1      28.522  46.785   8.231  0.00  0.00     0.089 A 
ATOM      3  N   UNL d   1      27.793  46.089   9.120  0.00  0.00    -0.187 N 
ATOM      4  HN  UNL d   1      26.850  46.334   9.420  1.00  0.00     0.184 HD
ATOM      5  C   UNL d   1      28.488  45.020   9.556  0.00  0.00     0.704 A 
ATOM      6  N   UNL d   1      28.190  44.037  10.436  0.00  0.00    -0.199 N 
ATOM      7  HN  UNL d   1      27.282  44.037  10.900  1.00  0.00     0.183 HD
ATOM      8  C   UNL d   1      29.072  43.063  10.706  0.00  0.00     0.124 A 
ATOM      9  C   UNL d   1      30.288  43.104  10.055  0.00  0.00     0.126 A 
ATOM     10  N   UNL d   1      30.560  44.092   9.183  0.00  0.00    -0.289 N 
ATOM     11  HN  UNL d   1      31.465  44.105   8.712  1.00  0.00     0.187 HD
ATOM     12  N   UNL d   1      29.672  45.061   8.920  0.00  0.00    -0.084 N 
ENDROOT
BRANCH   2  13
ATOM     13  C   UNL d   1      28.066  47.999   7.566  0.00  0.00    -0.006 A 
ATOM     14  C   UNL d   1      28.922  48.879   6.931  0.00  0.00     0.014 A 
ATOM     15  C   UNL d   1      28.414  50.026   6.312  0.00  0.00     0.010 A 
ATOM     16  C   UNL d   1      27.046  50.275   6.338  0.00  0.00    -0.030 A 
ATOM     17  C   UNL d   1      26.191  49.406   6.966  0.00  0.00     0.010 A 
ATOM     18  C   UNL d   1      26.716  48.281   7.571  0.00  0.00     0.014 A 
BRANCH  16  19
ATOM     19  C   UNL d   1      26.448  51.479   5.697  0.00  0.00     0.311 C 
BRANCH  19  20
ATOM     20  N   UNL d   1      27.144  52.649   6.167  0.00  0.00     0.092 N 
ATOM     21  C   UNL d   1      26.866  53.825   5.371  0.00  0.00     0.273 C 
ATOM     22  C   UNL d   1      26.752  54.984   6.337  0.00  0.00     0.036 C 
ATOM     23  C   UNL d   1      26.410  54.355   7.670  0.00  0.00     0.011 C 
ATOM     24  C   UNL d   1      24.924  54.466   7.970  0.00  0.00     0.011 C 
ATOM     25  C   UNL d   1      26.827  52.931   7.531  0.00  0.00     0.277 C 
ENDBRANCH  19  20
ENDBRANCH  16  19
ENDBRANCH   2  13
BRANCH   1  26
ATOM     26  C   UNL d   1      30.827  46.550   7.227  0.00  0.00    -0.004 A 
ATOM     27  C   UNL d   1      30.887  46.146   5.910  0.00  0.00     0.014 A 
ATOM     28  C   UNL d   1      31.902  46.520   5.051  0.00  0.00     0.010 A 
ATOM     29  C   UNL d   1      32.921  47.343   5.521  0.00  0.00    -0.030 A 
ATOM     30  C   UNL d   1      32.884  47.756   6.819  0.00  0.00     0.010 A 
ATOM     31  C   UNL d   1      31.854  47.367   7.667  0.00  0.00     0.014 A 
BRANCH  29  32
ATOM     32  C   UNL d   1      33.976  47.707   4.546  0.00  0.00     0.311 C 
BRANCH  32  33
ATOM     33  N   UNL d   1      34.403  46.554   3.767  0.00  0.00     0.091 N 
BRANCH  33  34
ATOM     34  C   UNL d   1      35.652  46.081   4.384  0.00  0.00     0.268 C 
ATOM     35  C   UNL d   1      35.455  44.730   5.035  0.00  0.00     0.037 C 
ENDBRANCH  33  34
BRANCH  33  36
ATOM     36  C   UNL d   1      34.825  47.118   2.474  0.00  0.00     0.268 C 
ATOM     37  C   UNL d   1      33.594  47.436   1.618  0.00  0.00     0.037 C 
ENDBRANCH  33  36
ENDBRANCH  32  33
ENDBRANCH  29  32
ENDBRANCH   1  26
TORSDOF 8
ENDMDL
MODEL 2
REMARK VINA RESULT:      -7.5      1.578      2.234
REMARK  8 active torsions:
REMARK  status: ('A' for Active; 'I' for Inactive)
REMARK    1  A    between atoms: C_2  and  N_3 
REMARK    2  A    between atoms: N_3  and  C_4 
REMARK    3  A    between atoms: N_3  and  C_6 
REMARK    4  A    between atoms: C_6  and  C_7 
REMARK    5  A    between atoms: C_10  and  C_11 
REMARK    6  A    between atoms: C_12  and  C_13 
REMARK    7  A    between atoms: C_16  and  C_17 
REMARK    8  A    between atoms: C_17  and  N_18 
ROOT
ATOM      1  C   UNL d   1      29.533  46.033   8.165  0.00  0.00     0.113 A 
ATOM      2  C   UNL d   1      28.277  46.596   8.318  0.00  0.00     0.089 A 
ATOM      3  N   UNL d   1      27.624  45.858   9.233  0.00  0.00    -0.187 N 
ATOM      4  HN  UNL d   1      26.672  46.034   9.552  1.00  0.00     0.184 HD
ATOM      5  C   UNL d   1      28.410  44.852   9.665  0.00  0.00     0.704 A 
ATOM      6  N   UNL d   1      28.209  43.862  10.564  0.00  0.00    -0.199 N 
ATOM      7  HN  UNL d   1      27.315  43.797  11.050  1.00  0.00     0.183 HD
ATOM      8  C   UNL d   1      29.170  42.962  10.826  0.00  0.00     0.124 A 
ATOM      9  C   UNL d   1      30.364  43.088  10.145  0.00  0.00     0.126 A 
ATOM     10  N   UNL d   1      30.539  44.082   9.255  0.00  0.00    -0.289 N 
ATOM     11  HN  UNL d   1      31.429  44.158   8.762  1.00  0.00     0.187 HD
ATOM     12  N   UNL d   1      29.573  44.976   9.001  0.00  0.00    -0.084 N 
ENDROOT
BRANCH   2  13
ATOM     13  C   UNL d   1      27.713  47.762   7.650  0.00  0.00    -0.006 A 
ATOM     14  C   UNL d   1      28.488  48.734   7.046  0.00  0.00     0.014 A 
ATOM     15  C   UNL d   1      27.879  49.826   6.421  0.00  0.00     0.010 A 
ATOM     16  C   UNL d   1      26.491  49.930   6.410  0.00  0.00    -0.030 A 
ATOM     17  C   UNL d   1      25.717  48.969   7.007  0.00  0.00     0.010 A 
ATOM     18  C   UNL d   1      26.342  47.900   7.619  0.00  0.00     0.014 A 
BRANCH  16  19
ATOM     19  C   UNL d   1      25.788  51.070   5.761  0.00  0.00     0.311 C 
BRANCH  19  20
ATOM     20  N   UNL d   1      25.011  50.568   4.657  0.00  0.00     0.092 N 
ATOM     21  C   UNL d   1      23.659  51.083   4.643  0.00  0.00     0.273 C 
ATOM     22  C   UNL d   1      23.314  51.353   3.193  0.00  0.00     0.036 C 
ATOM     23  C   UNL d   1      24.647  51.519   2.496  0.00  0.00     0.011 C 
ATOM     24  C   UNL d   1      24.983  52.986   2.283  0.00  0.00     0.011 C 
ATOM     25  C   UNL d   1      25.632  50.866   3.405  0.00  0.00     0.277 C 
ENDBRANCH  19  20
ENDBRANCH  16  19
ENDBRANCH   2  13
BRANCH   1  26
ATOM     26  C   UNL d   1      30.570  46.525   7.264  0.00  0.00    -0.004 A 
ATOM     27  C   UNL d   1      30.641  46.096   5.955  0.00  0.00     0.014 A 
ATOM     28  C   UNL d   1      31.604  46.535   5.067  0.00  0.00     0.010 A 
ATOM     29  C   UNL d   1      32.557  47.454   5.499  0.00  0.00    -0.030 A 
ATOM     30  C   UNL d   1      32.507  47.893   6.788  0.00  0.00     0.010 A 
ATOM     31  C   UNL d   1      31.530  47.438   7.664  0.00  0.00     0.014 A 
BRANCH  29  32
ATOM     32  C   UNL d   1      33.559  47.883   4.495  0.00  0.00     0.311 C 
BRANCH  32  33
ATOM     33  N   UNL d   1      34.277  46.745   3.937  0.00  0.00     0.091 N 
BRANCH  33  34
ATOM     34  C   UNL d   1      35.701  46.977   4.225  0.00  0.00     0.268 C 
ATOM     35  C   UNL d   1      36.390  45.686   4.612  0.00  0.00     0.037 C 
ENDBRANCH  33  34
BRANCH  33  36
ATOM     36  C   UNL d   1      34.166  46.918   2.480  0.00  0.00     0.268 C 
ATOM     37  C   UNL d   1      33.412  45.731   1.871  0.00  0.00     0.037 C 
ENDBRANCH  33  36
ENDBRANCH  32  33
ENDBRANCH  29  32
ENDBRANCH   1  26
TORSDOF 8
ENDMDL
MODEL 3
REMARK VINA RESULT:      -7.4      2.403      7.381
REMARK  8 active torsions:
REMARK  status: ('A' for Active; 'I' for Inactive)
REMARK    1  A    between atoms: C_2  and  N_3 
REMARK    2  A    between atoms: N_3  and  C_4 
REMARK    3  A    between atoms: N_3  and  C_6 
REMARK    4  A    between atoms: C_6  and  C_7 
REMARK    5  A    between atoms: C_10  and  C_11 
REMARK    6  A    between atoms: C_12  and  C_13 
REMARK    7  A    between atoms: C_16  and  C_17 
REMARK    8  A    between atoms: C_17  and  N_18 
ROOT
ATOM      1  C   UNL d   1      29.737  47.424   6.868  0.00  0.00     0.113 A 
ATOM      2  C   UNL d   1      29.511  46.540   7.910  0.00  0.00     0.089 A 
ATOM      3  N   UNL d   1      28.293  46.820   8.407  0.00  0.00    -0.187 N 
ATOM      4  HN  UNL d   1      27.855  46.329   9.186  1.00  0.00     0.184 HD
ATOM      5  C   UNL d   1      27.738  47.842   7.728  0.00  0.00     0.704 A 
ATOM      6  N   UNL d   1      26.549  48.476   7.848  0.00  0.00    -0.199 N 
ATOM      7  HN  UNL d   1      25.893  48.180   8.569  1.00  0.00     0.183 HD
ATOM      8  C   UNL d   1      26.223  49.489   7.031  0.00  0.00     0.124 A 
ATOM      9  C   UNL d   1      27.142  49.856   6.069  0.00  0.00     0.126 A 
ATOM     10  N   UNL d   1      28.318  49.209   5.970  0.00  0.00    -0.289 N 
ATOM     11  HN  UNL d   1      28.985  49.495   5.253  1.00  0.00     0.187 HD
ATOM     12  N   UNL d   1      28.636  48.198   6.791  0.00  0.00    -0.084 N 
ENDROOT
BRANCH   2  13
ATOM     13  C   UNL d   1      30.382  45.487   8.416  0.00  0.00    -0.006 A 
ATOM     14  C   UNL d   1      29.978  44.173   8.553  0.00  0.00     0.014 A 
ATOM     15  C   UNL d   1      30.868  43.214   9.045  0.00  0.00     0.010 A 
ATOM     16  C   UNL d   1      32.162  43.588   9.395  0.00  0.00    -0.030 A 
ATOM     17  C   UNL d   1      32.571  44.890   9.261  0.00  0.00     0.010 A 
ATOM     18  C   UNL d   1      31.672  45.819   8.774  0.00  0.00     0.014 A 
BRANCH  16  19
ATOM     19  C   UNL d   1      33.153  42.612   9.924  0.00  0.00     0.311 C 
BRANCH  19  20
ATOM     20  N   UNL d   1      34.099  42.301   8.883  0.00  0.00     0.092 N 
ATOM     21  C   UNL d   1      33.778  42.938   7.624  0.00  0.00     0.273 C 
ATOM     22  C   UNL d   1      35.092  43.386   7.019  0.00  0.00     0.036 C 
ATOM     23  C   UNL d   1      36.046  43.498   8.188  0.00  0.00     0.011 C 
ATOM     24  C   UNL d   1      36.208  44.941   8.636  0.00  0.00     0.011 C 
ATOM     25  C   UNL d   1      35.428  42.667   9.260  0.00  0.00     0.277 C 
ENDBRANCH  19  20
ENDBRANCH  16  19
ENDBRANCH   2  13
BRANCH   1  26
ATOM     26  C   UNL d   1      30.944  47.468   6.050  0.00  0.00    -0.004 A 
ATOM     27  C   UNL d   1      31.307  46.400   5.256  0.00  0.00     0.014 A 
ATOM     28  C   UNL d   1      32.440  46.398   4.466  0.00  0.00     0.010 A 
ATOM     29  C   UNL d   1      33.267  47.518   4.460  0.00  0.00    -0.030 A 
ATOM     30  C   UNL d   1      32.929  48.585   5.237  0.00  0.00     0.010 A 
ATOM     31  C   UNL d   1      31.785  48.567   6.024  0.00  0.00     0.014 A 
BRANCH  29  32
ATOM     32  C   UNL d   1      34.464  47.448   3.589  0.00  0.00     0.311 C 
BRANCH  32  33
ATOM     33  N   UNL d   1      35.451  46.515   4.113  0.00  0.00     0.091 N 
BRANCH  33  34
ATOM     34  C   UNL d   1      36.633  47.319   4.461  0.00  0.00     0.268 C 
ATOM     35  C   UNL d   1      37.469  46.623   5.512  0.00  0.00     0.037 C 
ENDBRANCH  33  34
BRANCH  33  36
ATOM     36  C   UNL d   1      35.875  45.730   2.941  0.00  0.00     0.268 C 
ATOM     37  C   UNL d   1      35.672  44.236   3.215  0.00  0.00     0.037 C 
ENDBRANCH  33  36
ENDBRANCH  32  33
ENDBRANCH  29  32
ENDBRANCH   1  26
TORSDOF 8
ENDMDL
MODEL 4
REMARK VINA RESULT:      -7.4      1.156      1.983
REMARK  8 active torsions:
REMARK  status: ('A' for Active; 'I' for Inactive)
REMARK    1  A    between atoms: C_2  and  N_3 
REMARK    2  A    between atoms: N_3  and  C_4 
REMARK    3  A    between atoms: N_3  and  C_6 
REMARK    4  A    between atoms: C_6  and  C_7 
REMARK    5  A    between atoms: C_10  and  C_11 
REMARK    6  A    between atoms: C_12  and  C_13 
REMARK    7  A    between atoms: C_16  and  C_17 
REMARK    8  A    between atoms: C_17  and  N_18 
ROOT
ATOM      1  C   UNL d   1      29.665  46.098   8.113  0.00  0.00     0.113 A 
ATOM      2  C   UNL d   1      28.442  46.733   8.253  0.00  0.00     0.089 A 
ATOM      3  N   UNL d   1      27.731  46.024   9.147  0.00  0.00    -0.187 N 
ATOM      4  HN  UNL d   1      26.785  46.252   9.454  1.00  0.00     0.184 HD
ATOM      5  C   UNL d   1      28.448  44.967   9.579  0.00  0.00     0.704 A 
ATOM      6  N   UNL d   1      28.173  43.980  10.461  0.00  0.00    -0.199 N 
ATOM      7  HN  UNL d   1      27.269  43.963  10.931  1.00  0.00     0.183 HD
ATOM      8  C   UNL d   1      29.074  43.021  10.725  0.00  0.00     0.124 A 
ATOM      9  C   UNL d   1      30.285  43.084  10.066  0.00  0.00     0.126 A 
ATOM     10  N   UNL d   1      30.534  44.077   9.193  0.00  0.00    -0.289 N 
ATOM     11  HN  UNL d   1      31.435  44.106   8.715  1.00  0.00     0.187 HD
ATOM     12  N   UNL d   1      29.627  45.030   8.935  0.00  0.00    -0.084 N 
ENDROOT
BRANCH   2  13
ATOM     13  C   UNL d   1      27.960  47.939   7.592  0.00  0.00    -0.006 A 
ATOM     14  C   UNL d   1      28.794  48.826   6.939  0.00  0.00     0.014 A 
ATOM     15  C   UNL d   1      28.263  49.964   6.324  0.00  0.00     0.010 A 
ATOM     16  C   UNL d   1      26.891  50.197   6.373  0.00  0.00    -0.030 A 
ATOM     17  C   UNL d   1      26.058  49.321   7.018  0.00  0.00     0.010 A 
ATOM     18  C   UNL d   1      26.607  48.205   7.619  0.00  0.00     0.014 A 
BRANCH  16  19
ATOM     19  C   UNL d   1      26.269  51.391   5.737  0.00  0.00     0.311 C 
BRANCH  19  20
ATOM     20  N   UNL d   1      27.011  52.563   6.123  0.00  0.00     0.092 N 
ATOM     21  C   UNL d   1      26.712  53.714   5.298  0.00  0.00     0.273 C 
ATOM     22  C   UNL d   1      26.674  54.911   6.223  0.00  0.00     0.036 C 
ATOM     23  C   UNL d   1      26.393  54.340   7.596  0.00  0.00     0.011 C 
ATOM     24  C   UNL d   1      24.928  54.493   7.972  0.00  0.00     0.011 C 
ATOM     25  C   UNL d   1      26.775  52.902   7.491  0.00  0.00     0.277 C 
ENDBRANCH  19  20
ENDBRANCH  16  19
ENDBRANCH   2  13
BRANCH   1  26
ATOM     26  C   UNL d   1      30.744  46.539   7.235  0.00  0.00    -0.004 A 
ATOM     27  C   UNL d   1      31.749  47.362   7.698  0.00  0.00     0.014 A 
ATOM     28  C   UNL d   1      32.790  47.803   6.903  0.00  0.00     0.010 A 
ATOM     29  C   UNL d   1      32.840  47.408   5.569  0.00  0.00    -0.030 A 
ATOM     30  C   UNL d   1      31.858  46.594   5.089  0.00  0.00     0.010 A 
ATOM     31  C   UNL d   1      30.821  46.162   5.906  0.00  0.00     0.014 A 
BRANCH  29  32
ATOM     32  C   UNL d   1      33.984  47.916   4.775  0.00  0.00     0.311 C 
BRANCH  32  33
ATOM     33  N   UNL d   1      34.184  49.344   4.981  0.00  0.00     0.091 N 
BRANCH  33  34
ATOM     34  C   UNL d   1      33.406  50.023   3.934  0.00  0.00     0.268 C 
ATOM     35  C   UNL d   1      32.325  50.890   4.541  0.00  0.00     0.037 C 
ENDBRANCH  33  34
BRANCH  33  36
ATOM     36  C   UNL d   1      35.588  49.577   4.604  0.00  0.00     0.268 C 
ATOM     37  C   UNL d   1      36.468  48.445   5.144  0.00  0.00     0.037 C 
ENDBRANCH  33  36
ENDBRANCH  32  33
ENDBRANCH  29  32
ENDBRANCH   1  26
TORSDOF 8
ENDMDL
MODEL 5
REMARK VINA RESULT:      -7.3      2.806      7.370
REMARK  8 active torsions:
REMARK  status: ('A' for Active; 'I' for Inactive)
REMARK    1  A    between atoms: C_2  and  N_3 
REMARK    2  A    between atoms: N_3  and  C_4 
REMARK    3  A    between atoms: N_3  and  C_6 
REMARK    4  A    between atoms: C_6  and  C_7 
REMARK    5  A    between atoms: C_10  and  C_11 
REMARK    6  A    between atoms: C_12  and  C_13 
REMARK    7  A    between atoms: C_16  and  C_17 
REMARK    8  A    between atoms: C_17  and  N_18 
ROOT
ATOM      1  C   UNL d   1      29.919  47.259   7.499  0.00  0.00     0.113 A 
ATOM      2  C   UNL d   1      29.780  45.977   8.007  0.00  0.00     0.089 A 
ATOM      3  N   UNL d   1      28.473  45.795   8.263  0.00  0.00    -0.187 N 
ATOM      4  HN  UNL d   1      28.067  44.941   8.646  1.00  0.00     0.184 HD
ATOM      5  C   UNL d   1      27.777  46.903   7.941  0.00  0.00     0.704 A 
ATOM      6  N   UNL d   1      26.461  47.205   8.014  0.00  0.00    -0.199 N 
ATOM      7  HN  UNL d   1      25.805  46.511   8.372  1.00  0.00     0.183 HD
ATOM      8  C   UNL d   1      26.006  48.405   7.623  0.00  0.00     0.124 A 
ATOM      9  C   UNL d   1      26.929  49.313   7.144  0.00  0.00     0.126 A 
ATOM     10  N   UNL d   1      28.234  48.988   7.082  0.00  0.00    -0.289 N 
ATOM     11  HN  UNL d   1      28.901  49.673   6.726  1.00  0.00     0.187 HD
ATOM     12  N   UNL d   1      28.679  47.786   7.476  0.00  0.00    -0.084 N 
ENDROOT
BRANCH   2  13
ATOM     13  C   UNL d   1      30.811  44.973   8.240  0.00  0.00    -0.006 A 
ATOM     14  C   UNL d   1      31.813  44.695   7.332  0.00  0.00     0.014 A 
ATOM     15  C   UNL d   1      32.771  43.719   7.622  0.00  0.00     0.010 A 
ATOM     16  C   UNL d   1      32.709  43.030   8.830  0.00  0.00    -0.030 A 
ATOM     17  C   UNL d   1      31.717  43.301   9.737  0.00  0.00     0.010 A 
ATOM     18  C   UNL d   1      30.782  44.269   9.426  0.00  0.00     0.014 A 
BRANCH  16  19
ATOM     19  C   UNL d   1      33.700  41.980   9.194  0.00  0.00     0.311 C 
BRANCH  19  20
ATOM     20  N   UNL d   1      34.920  42.619   9.615  0.00  0.00     0.092 N 
ATOM     21  C   UNL d   1      35.639  43.233   8.519  0.00  0.00     0.273 C 
ATOM     22  C   UNL d   1      36.193  44.541   9.044  0.00  0.00     0.036 C 
ATOM     23  C   UNL d   1      35.314  44.896  10.224  0.00  0.00     0.011 C 
ATOM     24  C   UNL d   1      34.273  45.937   9.847  0.00  0.00     0.011 C 
ATOM     25  C   UNL d   1      34.671  43.609  10.615  0.00  0.00     0.277 C 
ENDBRANCH  19  20
ENDBRANCH  16  19
ENDBRANCH   2  13
BRANCH   1  26
ATOM     26  C   UNL d   1      31.180  47.867   7.088  0.00  0.00    -0.004 A 
ATOM     27  C   UNL d   1      31.497  48.019   5.754  0.00  0.00     0.014 A 
ATOM     28  C   UNL d   1      32.678  48.589   5.319  0.00  0.00     0.010 A 
ATOM     29  C   UNL d   1      33.603  49.035   6.259  0.00  0.00    -0.030 A 
ATOM     30  C   UNL d   1      33.312  48.895   7.583  0.00  0.00     0.010 A 
ATOM     31  C   UNL d   1      32.118  48.319   7.998  0.00  0.00     0.014 A 
BRANCH  29  32
ATOM     32  C   UNL d   1      34.847  49.637   5.723  0.00  0.00     0.311 C 
BRANCH  32  33
ATOM     33  N   UNL d   1      36.031  48.959   6.232  0.00  0.00     0.091 N 
BRANCH  33  34
ATOM     34  C   UNL d   1      36.964  50.016   6.650  0.00  0.00     0.268 C 
ATOM     35  C   UNL d   1      37.991  49.477   7.620  0.00  0.00     0.037 C 
ENDBRANCH  33  34
BRANCH  33  36
ATOM     36  C   UNL d   1      36.658  48.368   5.038  0.00  0.00     0.268 C 
ATOM     37  C   UNL d   1      36.703  46.842   5.174  0.00  0.00     0.037 C 
ENDBRANCH  33  36
ENDBRANCH  32  33
ENDBRANCH  29  32
ENDBRANCH   1  26
TORSDOF 8
ENDMDL
MODEL 6
REMARK VINA RESULT:      -7.3      2.089      3.123
REMARK  8 active torsions:
REMARK  status: ('A' for Active; 'I' for Inactive)
REMARK    1  A    between atoms: C_2  and  N_3 
REMARK    2  A    between atoms: N_3  and  C_4 
REMARK    3  A    between atoms: N_3  and  C_6 
REMARK    4  A    between atoms: C_6  and  C_7 
REMARK    5  A    between atoms: C_10  and  C_11 
REMARK    6  A    between atoms: C_12  and  C_13 
REMARK    7  A    between atoms: C_16  and  C_17 
REMARK    8  A    between atoms: C_17  and  N_18 
ROOT
ATOM      1  C   UNL d   1      29.504  46.107   8.222  0.00  0.00     0.113 A 
ATOM      2  C   UNL d   1      28.212  46.600   8.313  0.00  0.00     0.089 A 
ATOM      3  N   UNL d   1      27.552  45.814   9.181  0.00  0.00    -0.187 N 
ATOM      4  HN  UNL d   1      26.575  45.934   9.450  1.00  0.00     0.184 HD
ATOM      5  C   UNL d   1      28.365  44.845   9.643  0.00  0.00     0.704 A 
ATOM      6  N   UNL d   1      28.170  43.832  10.517  0.00  0.00    -0.199 N 
ATOM      7  HN  UNL d   1      27.256  43.712  10.952  1.00  0.00     0.183 HD
ATOM      8  C   UNL d   1      29.162  42.981  10.820  0.00  0.00     0.124 A 
ATOM      9  C   UNL d   1      30.383  43.180  10.208  0.00  0.00     0.126 A 
ATOM     10  N   UNL d   1      30.552  44.196   9.341  0.00  0.00    -0.289 N 
ATOM     11  HN  UNL d   1      31.462  44.326   8.899  1.00  0.00     0.187 HD
ATOM     12  N   UNL d   1      29.555  45.041   9.045  0.00  0.00    -0.084 N 
ENDROOT
BRANCH   2  13
ATOM     13  C   UNL d   1      27.624  47.745   7.629  0.00  0.00    -0.006 A 
ATOM     14  C   UNL d   1      28.374  48.685   6.949  0.00  0.00     0.014 A 
ATOM     15  C   UNL d   1      27.742  49.758   6.314  0.00  0.00     0.010 A 
ATOM     16  C   UNL d   1      26.356  49.874   6.370  0.00  0.00    -0.030 A 
ATOM     17  C   UNL d   1      25.606  48.945   7.043  0.00  0.00     0.010 A 
ATOM     18  C   UNL d   1      26.254  47.894   7.663  0.00  0.00     0.014 A 
BRANCH  16  19
ATOM     19  C   UNL d   1      25.629  50.995   5.714  0.00  0.00     0.311 C 
BRANCH  19  20
ATOM     20  N   UNL d   1      25.241  50.584   4.389  0.00  0.00     0.092 N 
ATOM     21  C   UNL d   1      23.806  50.585   4.198  0.00  0.00     0.273 C 
ATOM     22  C   UNL d   1      23.556  51.111   2.801  0.00  0.00     0.036 C 
ATOM     23  C   UNL d   1      24.792  51.912   2.454  0.00  0.00     0.011 C 
ATOM     24  C   UNL d   1      24.556  53.403   2.637  0.00  0.00     0.011 C 
ATOM     25  C   UNL d   1      25.839  51.413   3.390  0.00  0.00     0.277 C 
ENDBRANCH  19  20
ENDBRANCH  16  19
ENDBRANCH   2  13
BRANCH   1  26
ATOM     26  C   UNL d   1      30.560  46.667   7.385  0.00  0.00    -0.004 A 
ATOM     27  C   UNL d   1      31.376  47.679   7.848  0.00  0.00     0.014 A 
ATOM     28  C   UNL d   1      32.387  48.238   7.090  0.00  0.00     0.010 A 
ATOM     29  C   UNL d   1      32.605  47.771   5.797  0.00  0.00    -0.030 A 
ATOM     30  C   UNL d   1      31.812  46.772   5.319  0.00  0.00     0.010 A 
ATOM     31  C   UNL d   1      30.800  46.224   6.097  0.00  0.00     0.014 A 
BRANCH  29  32
ATOM     32  C   UNL d   1      33.707  48.415   5.043  0.00  0.00     0.311 C 
BRANCH  32  33
ATOM     33  N   UNL d   1      34.223  49.582   5.743  0.00  0.00     0.091 N 
BRANCH  33  34
ATOM     34  C   UNL d   1      34.118  50.707   4.801  0.00  0.00     0.268 C 
ATOM     35  C   UNL d   1      32.803  51.434   4.973  0.00  0.00     0.037 C 
ENDBRANCH  33  34
BRANCH  33  36
ATOM     36  C   UNL d   1      35.670  49.334   5.857  0.00  0.00     0.268 C 
ATOM     37  C   UNL d   1      36.355  50.539   6.510  0.00  0.00     0.037 C 
ENDBRANCH  33  36
ENDBRANCH  32  33
ENDBRANCH  29  32
ENDBRANCH   1  26
TORSDOF 8
ENDMDL
MODEL 7
REMARK VINA RESULT:      -7.2      3.323      9.230
REMARK  8 active torsions:
REMARK  status: ('A' for Active; 'I' for Inactive)
REMARK    1  A    between atoms: C_2  and  N_3 
REMARK    2  A    between atoms: N_3  and  C_4 
REMARK    3  A    between atoms: N_3  and  C_6 
REMARK    4  A    between atoms: C_6  and  C_7 
REMARK    5  A    between atoms: C_10  and  C_11 
REMARK    6  A    between atoms: C_12  and  C_13 
REMARK    7  A    between atoms: C_16  and  C_17 
REMARK    8  A    between atoms: C_17  and  N_18 
ROOT
ATOM      1  C   UNL d   1      32.821  49.858   5.841  0.00  0.00     0.113 A 
ATOM      2  C   UNL d   1      34.206  49.865   5.873  0.00  0.00     0.089 A 
ATOM      3  N   UNL d   1      34.605  51.053   5.386  0.00  0.00    -0.187 N 
ATOM      4  HN  UNL d   1      35.577  51.346   5.288  1.00  0.00     0.184 HD
ATOM      5  C   UNL d   1      33.536  51.799   5.046  0.00  0.00     0.704 A 
ATOM      6  N   UNL d   1      33.421  53.041   4.524  0.00  0.00    -0.199 N 
ATOM      7  HN  UNL d   1      34.262  53.580   4.319  1.00  0.00     0.183 HD
ATOM      8  C   UNL d   1      32.216  53.574   4.270  0.00  0.00     0.124 A 
ATOM      9  C   UNL d   1      31.105  52.809   4.563  0.00  0.00     0.126 A 
ATOM     10  N   UNL d   1      31.246  51.575   5.082  0.00  0.00    -0.289 N 
ATOM     11  HN  UNL d   1      30.412  51.026   5.291  1.00  0.00     0.187 HD
ATOM     12  N   UNL d   1      32.454  51.052   5.332  0.00  0.00    -0.084 N 
ENDROOT
BRANCH   2  13
ATOM     13  C   UNL d   1      35.111  48.820   6.334  0.00  0.00    -0.006 A 
ATOM     14  C   UNL d   1      35.639  48.788   7.610  0.00  0.00     0.014 A 
ATOM     15  C   UNL d   1      36.502  47.754   7.985  0.00  0.00     0.010 A 
ATOM     16  C   UNL d   1      36.826  46.758   7.068  0.00  0.00    -0.030 A 
ATOM     17  C   UNL d   1      36.305  46.784   5.800  0.00  0.00     0.010 A 
ATOM     18  C   UNL d   1      35.456  47.816   5.453  0.00  0.00     0.014 A 
BRANCH  16  19
ATOM     19  C   UNL d   1      37.738  45.633   7.411  0.00  0.00     0.311 C 
BRANCH  19  20
ATOM     20  N   UNL d   1      37.037  44.710   8.264  0.00  0.00     0.092 N 
ATOM     21  C   UNL d   1      36.563  45.323   9.486  0.00  0.00     0.273 C 
ATOM     22  C   UNL d   1      35.192  44.742   9.759  0.00  0.00     0.036 C 
ATOM     23  C   UNL d   1      34.696  44.254   8.415  0.00  0.00     0.011 C 
ATOM     24  C   UNL d   1      33.724  45.242   7.791  0.00  0.00     0.011 C 
ATOM     25  C   UNL d   1      35.928  44.114   7.587  0.00  0.00     0.277 C 
ENDBRANCH  19  20
ENDBRANCH  16  19
ENDBRANCH   2  13
BRANCH   1  26
ATOM     26  C   UNL d   1      31.976  48.754   6.282  0.00  0.00    -0.004 A 
ATOM     27  C   UNL d   1      31.359  48.775   7.516  0.00  0.00     0.014 A 
ATOM     28  C   UNL d   1      30.552  47.752   7.973  0.00  0.00     0.010 A 
ATOM     29  C   UNL d   1      30.341  46.639   7.164  0.00  0.00    -0.030 A 
ATOM     30  C   UNL d   1      30.939  46.596   5.941  0.00  0.00     0.010 A 
ATOM     31  C   UNL d   1      31.748  47.635   5.500  0.00  0.00     0.014 A 
BRANCH  29  32
ATOM     32  C   UNL d   1      29.462  45.581   7.717  0.00  0.00     0.311 C 
BRANCH  32  33
ATOM     33  N   UNL d   1      29.998  45.036   8.956  0.00  0.00     0.091 N 
BRANCH  33  34
ATOM     34  C   UNL d   1      30.404  43.654   8.656  0.00  0.00     0.268 C 
ATOM     35  C   UNL d   1      31.344  43.126   9.717  0.00  0.00     0.037 C 
ENDBRANCH  33  34
BRANCH  33  36
ATOM     36  C   UNL d   1      28.824  44.890   9.833  0.00  0.00     0.268 C 
ATOM     37  C   UNL d   1      27.562  45.349   9.094  0.00  0.00     0.037 C 
ENDBRANCH  33  36
ENDBRANCH  32  33
ENDBRANCH  29  32
ENDBRANCH   1  26
TORSDOF 8
ENDMDL
MODEL 8
REMARK VINA RESULT:      -7.0      1.266      2.290
REMARK  8 active torsions:
REMARK  status: ('A' for Active; 'I' for Inactive)
REMARK    1  A    between atoms: C_2  and  N_3 
REMARK    2  A    between atoms: N_3  and  C_4 
REMARK    3  A    between atoms: N_3  and  C_6 
REMARK    4  A    between atoms: C_6  and  C_7 
REMARK    5  A    between atoms: C_10  and  C_11 
REMARK    6  A    between atoms: C_12  and  C_13 
REMARK    7  A    between atoms: C_16  and  C_17 
REMARK    8  A    between atoms: C_17  and  N_18 
ROOT
ATOM      1  C   UNL d   1      29.562  46.386   7.966  0.00  0.00     0.113 A 
ATOM      2  C   UNL d   1      28.308  46.975   8.011  0.00  0.00     0.089 A 
ATOM      3  N   UNL d   1      27.563  46.250   8.864  0.00  0.00    -0.187 N 
ATOM      4  HN  UNL d   1      26.591  46.446   9.100  1.00  0.00     0.184 HD
ATOM      5  C   UNL d   1      28.287  45.228   9.361  0.00  0.00     0.704 A 
ATOM      6  N   UNL d   1      27.989  44.242  10.237  0.00  0.00    -0.199 N 
ATOM      7  HN  UNL d   1      27.055  44.196  10.643  1.00  0.00     0.183 HD
ATOM      8  C   UNL d   1      28.905  43.323  10.579  0.00  0.00     0.124 A 
ATOM      9  C   UNL d   1      30.156  43.424  10.005  0.00  0.00     0.126 A 
ATOM     10  N   UNL d   1      30.428  44.415   9.135  0.00  0.00    -0.289 N 
ATOM     11  HN  UNL d   1      31.359  44.472   8.722  1.00  0.00     0.187 HD
ATOM     12  N   UNL d   1      29.506  45.328   8.800  0.00  0.00    -0.084 N 
ENDROOT
BRANCH   2  13
ATOM     13  C   UNL d   1      27.829  48.153   7.299  0.00  0.00    -0.006 A 
ATOM     14  C   UNL d   1      26.658  48.808   7.625  0.00  0.00     0.014 A 
ATOM     15  C   UNL d   1      26.260  49.934   6.898  0.00  0.00     0.010 A 
ATOM     16  C   UNL d   1      27.048  50.391   5.846  0.00  0.00    -0.030 A 
ATOM     17  C   UNL d   1      28.211  49.745   5.516  0.00  0.00     0.010 A 
ATOM     18  C   UNL d   1      28.583  48.635   6.249  0.00  0.00     0.014 A 
BRANCH  16  19
ATOM     19  C   UNL d   1      26.674  51.583   5.037  0.00  0.00     0.311 C 
BRANCH  19  20
ATOM     20  N   UNL d   1      27.154  52.765   5.704  0.00  0.00     0.092 N 
ATOM     21  C   UNL d   1      27.176  52.628   7.144  0.00  0.00     0.273 C 
ATOM     22  C   UNL d   1      28.440  53.308   7.625  0.00  0.00     0.036 C 
ATOM     23  C   UNL d   1      29.365  53.313   6.427  0.00  0.00     0.011 C 
ATOM     24  C   UNL d   1      30.395  52.199   6.517  0.00  0.00     0.011 C 
ATOM     25  C   UNL d   1      28.463  53.121   5.255  0.00  0.00     0.277 C 
ENDBRANCH  19  20
ENDBRANCH  16  19
ENDBRANCH   2  13
BRANCH   1  26
ATOM     26  C   UNL d   1      30.682  46.857   7.159  0.00  0.00    -0.004 A 
ATOM     27  C   UNL d   1      31.483  47.896   7.587  0.00  0.00     0.014 A 
ATOM     28  C   UNL d   1      32.554  48.373   6.856  0.00  0.00     0.010 A 
ATOM     29  C   UNL d   1      32.852  47.790   5.627  0.00  0.00    -0.030 A 
ATOM     30  C   UNL d   1      32.075  46.762   5.184  0.00  0.00     0.010 A 
ATOM     31  C   UNL d   1      31.003  46.297   5.935  0.00  0.00     0.014 A 
BRANCH  29  32
ATOM     32  C   UNL d   1      34.014  48.351   4.898  0.00  0.00     0.311 C 
BRANCH  32  33
ATOM     33  N   UNL d   1      35.263  47.746   5.339  0.00  0.00     0.091 N 
BRANCH  33  34
ATOM     34  C   UNL d   1      36.241  48.841   5.428  0.00  0.00     0.268 C 
ATOM     35  C   UNL d   1      36.091  49.594   6.731  0.00  0.00     0.037 C 
ENDBRANCH  33  34
BRANCH  33  36
ATOM     36  C   UNL d   1      35.713  46.947   4.187  0.00  0.00     0.268 C 
ATOM     37  C   UNL d   1      35.815  45.471   4.586  0.00  0.00     0.037 C 
ENDBRANCH  33  36
ENDBRANCH  32  33
ENDBRANCH  29  32
ENDBRANCH   1  26
TORSDOF 8
ENDMDL
MODEL 9
REMARK VINA RESULT:      -6.8      2.858      6.362
REMARK  8 active torsions:
REMARK  status: ('A' for Active; 'I' for Inactive)
REMARK    1  A    between atoms: C_2  and  N_3 
REMARK    2  A    between atoms: N_3  and  C_4 
REMARK    3  A    between atoms: N_3  and  C_6 
REMARK    4  A    between atoms: C_6  and  C_7 
REMARK    5  A    between atoms: C_10  and  C_11 
REMARK    6  A    between atoms: C_12  and  C_13 
REMARK    7  A    between atoms: C_16  and  C_17 
REMARK    8  A    between atoms: C_17  and  N_18 
ROOT
ATOM      1  C   UNL d   1      31.741  50.289   5.799  0.00  0.00     0.113 A 
ATOM      2  C   UNL d   1      30.842  51.311   5.539  0.00  0.00     0.089 A 
ATOM      3  N   UNL d   1      31.556  52.355   5.082  0.00  0.00    -0.187 N 
ATOM      4  HN  UNL d   1      31.162  53.254   4.806  1.00  0.00     0.184 HD
ATOM      5  C   UNL d   1      32.866  52.041   5.041  0.00  0.00     0.704 A 
ATOM      6  N   UNL d   1      33.958  52.741   4.662  0.00  0.00    -0.199 N 
ATOM      7  HN  UNL d   1      33.851  53.700   4.332  1.00  0.00     0.183 HD
ATOM      8  C   UNL d   1      35.182  52.193   4.716  0.00  0.00     0.124 A 
ATOM      9  C   UNL d   1      35.280  50.893   5.169  0.00  0.00     0.126 A 
ATOM     10  N   UNL d   1      34.177  50.217   5.540  0.00  0.00    -0.289 N 
ATOM     11  HN  UNL d   1      34.270  49.257   5.873  1.00  0.00     0.187 HD
ATOM     12  N   UNL d   1      32.959  50.774   5.484  0.00  0.00    -0.084 N 
ENDROOT
BRANCH   2  13
ATOM     13  C   UNL d   1      29.395  51.315   5.706  0.00  0.00    -0.006 A 
ATOM     14  C   UNL d   1      28.754  51.998   6.721  0.00  0.00     0.014 A 
ATOM     15  C   UNL d   1      27.359  51.959   6.820  0.00  0.00     0.010 A 
ATOM     16  C   UNL d   1      26.622  51.230   5.892  0.00  0.00    -0.030 A 
ATOM     17  C   UNL d   1      27.252  50.550   4.882  0.00  0.00     0.010 A 
ATOM     18  C   UNL d   1      28.630  50.603   4.806  0.00  0.00     0.014 A 
BRANCH  16  19
ATOM     19  C   UNL d   1      25.137  51.152   5.947  0.00  0.00     0.311 C 
BRANCH  19  20
ATOM     20  N   UNL d   1      24.741  49.771   5.849  0.00  0.00     0.092 N 
ATOM     21  C   UNL d   1      24.937  49.041   7.084  0.00  0.00     0.273 C 
ATOM     22  C   UNL d   1      23.747  48.118   7.235  0.00  0.00     0.036 C 
ATOM     23  C   UNL d   1      22.654  48.743   6.395  0.00  0.00     0.011 C 
ATOM     24  C   UNL d   1      21.668  49.517   7.255  0.00  0.00     0.011 C 
ATOM     25  C   UNL d   1      23.373  49.647   5.453  0.00  0.00     0.277 C 
ENDBRANCH  19  20
ENDBRANCH  16  19
ENDBRANCH   2  13
BRANCH   1  26
ATOM     26  C   UNL d   1      31.387  48.970   6.313  0.00  0.00    -0.004 A 
ATOM     27  C   UNL d   1      31.366  47.864   5.488  0.00  0.00     0.014 A 
ATOM     28  C   UNL d   1      31.037  46.598   5.931  0.00  0.00     0.010 A 
ATOM     29  C   UNL d   1      30.708  46.411   7.270  0.00  0.00    -0.030 A 
ATOM     30  C   UNL d   1      30.722  47.488   8.105  0.00  0.00     0.010 A 
ATOM     31  C   UNL d   1      31.055  48.753   7.639  0.00  0.00     0.014 A 
BRANCH  29  32
ATOM     32  C   UNL d   1      30.367  45.027   7.677  0.00  0.00     0.311 C 
BRANCH  32  33
ATOM     33  N   UNL d   1      30.480  44.851   9.118  0.00  0.00     0.091 N 
BRANCH  33  34
ATOM     34  C   UNL d   1      31.448  43.763   9.325  0.00  0.00     0.268 C 
ATOM     35  C   UNL d   1      31.995  43.269   8.004  0.00  0.00     0.037 C 
ENDBRANCH  33  34
BRANCH  33  36
ATOM     36  C   UNL d   1      29.188  44.273   9.521  0.00  0.00     0.268 C 
ATOM     37  C   UNL d   1      28.089  45.337   9.427  0.00  0.00     0.037 C 
ENDBRANCH  33  36
ENDBRANCH  32  33
ENDBRANCH  29  32
ENDBRANCH   1  26
TORSDOF 8
ENDMDL
