MODEL 1
REMARK VINA RESULT:      -7.1      0.000      0.000
REMARK  8 active torsions:
REMARK  status: ('A' for Active; 'I' for Inactive)
REMARK    1  A    between atoms: O_2  and  C_3 
REMARK    2  A    between atoms: C_3  and  C_5 
REMARK    3  A    between atoms: C_15  and  C_16 
REMARK    4  A    between atoms: C_16  and  C_37 
REMARK    5  A    between atoms: N_17  and  C_19 
REMARK    6  A    between atoms: C_22  and  N_23 
REMARK       I    between atoms: N_23  and  C_25 
REMARK    7  A    between atoms: C_25  and  C_27 
REMARK    8  A    between atoms: C_27  and  N_28 
ROOT
ATOM      1  C   UNL d   1      34.343  46.398   7.451  0.00  0.00     0.037 C 
ATOM      2  N   UNL d   1      33.448  46.786   6.610  0.00  0.00    -0.358 N 
ATOM      3  HN  UNL d   1      33.753  46.975   5.655  1.00  0.00     0.166 HD
ENDROOT
BRANCH   1   4
ATOM      4  C   UNL d   1      33.840  45.913   8.772  0.00  0.00     0.164 A 
ATOM      5  C   UNL d   1      34.610  46.513   9.900  0.00  0.00     0.236 A 
ATOM      6  N   UNL d   1      35.269  45.456  10.605  0.00  0.00    -0.326 N 
ATOM      7  O   UNL d   1      34.685  47.735  10.206  0.00  0.00    -0.272 OA
ATOM      8  C   UNL d   1      34.954  44.216   9.990  0.00  0.00     0.043 A 
ATOM      9  HN  UNL d   1      35.871  45.575  11.420  1.00  0.00     0.169 HD
ATOM     10  C   UNL d   1      34.113  44.441   8.911  0.00  0.00    -0.012 A 
ATOM     11  C   UNL d   1      35.370  42.945  10.338  0.00  0.00     0.047 A 
ATOM     12  C   UNL d   1      33.720  43.316   8.210  0.00  0.00     0.012 A 
ATOM     13  C   UNL d   1      34.132  42.041   8.552  0.00  0.00     0.018 A 
ATOM     14  C   UNL d   1      34.969  41.832   9.629  0.00  0.00     0.041 A 
BRANCH  14  15
ATOM     15  C   UNL d   1      35.386  40.482   9.964  0.00  0.00     0.293 C 
ATOM     16  O   UNL d   1      36.518  40.084   9.623  0.00  0.00    -0.259 OA
BRANCH  15  17
ATOM     17  O   UNL d   1      34.467  39.694  10.665  0.00  0.00    -0.323 OA
ATOM     18  C   UNL d   1      34.936  38.929  11.776  0.00  0.00     0.213 C 
ENDBRANCH  15  17
ENDBRANCH  14  15
ENDBRANCH   1   4
BRANCH   1  19
ATOM     19  C   UNL d   1      35.775  46.419   7.183  0.00  0.00    -0.012 A 
ATOM     20  C   UNL d   1      36.516  47.567   7.387  0.00  0.00     0.013 A 
ATOM     21  C   UNL d   1      37.861  47.571   7.126  0.00  0.00     0.001 A 
ATOM     22  C   UNL d   1      38.488  46.450   6.664  0.00  0.00     0.000 A 
ATOM     23  C   UNL d   1      37.744  45.320   6.465  0.00  0.00     0.001 A 
ATOM     24  C   UNL d   1      36.390  45.278   6.716  0.00  0.00     0.013 A 
ENDBRANCH   1  19
BRANCH   2  25
ATOM     25  C   UNL d   1      32.084  46.972   6.902  0.00  0.00     0.032 A 
ATOM     26  C   UNL d   1      31.639  48.030   7.697  0.00  0.00     0.031 A 
ATOM     27  C   UNL d   1      30.299  48.162   7.939  0.00  0.00     0.032 A 
ATOM     28  C   UNL d   1      29.359  47.278   7.424  0.00  0.00     0.037 A 
ATOM     29  C   UNL d   1      29.850  46.253   6.649  0.00  0.00     0.032 A 
ATOM     30  C   UNL d   1      31.189  46.061   6.364  0.00  0.00     0.031 A 
BRANCH  28  31
ATOM     31  N   UNL d   1      27.953  47.447   7.677  0.00  0.00    -0.318 N 
ATOM     32  C   UNL d   1      27.336  46.474   8.550  0.00  0.00     0.159 C 
ATOM     33  C   UNL d   1      27.276  48.524   7.064  0.00  0.00     0.263 C 
ATOM     34  O   UNL d   1      26.070  48.714   7.455  0.00  0.00    -0.267 OA
BRANCH  33  35
ATOM     35  C   UNL d   1      27.798  49.427   6.052  0.00  0.00     0.161 C 
BRANCH  35  36
ATOM     36  N   UNL d   1      28.125  50.741   6.436  0.00  0.00    -0.382 N 
ATOM     37  C   UNL d   1      29.433  51.221   6.113  0.00  0.00     0.152 C 
ATOM     38  C   UNL d   1      29.273  52.685   5.695  0.00  0.00     0.291 C 
ATOM     39  N   UNL d   1      28.793  53.476   6.826  0.00  0.00     0.087 N 
ATOM     40  C   UNL d   1      29.777  53.502   7.893  0.00  0.00     0.310 C 
ATOM     41  C   UNL d   1      27.568  52.884   7.342  0.00  0.00     0.291 C 
ATOM     42  C   UNL d   1      27.114  51.726   6.463  0.00  0.00     0.152 C 
ENDBRANCH  35  36
ENDBRANCH  33  35
ENDBRANCH  28  31
ENDBRANCH   2  25
TORSDOF 8
ENDMDL
MODEL 2
REMARK VINA RESULT:      -7.1      3.296      6.044
REMARK  8 active torsions:
REMARK  status: ('A' for Active; 'I' for Inactive)
REMARK    1  A    between atoms: O_2  and  C_3 
REMARK    2  A    between atoms: C_3  and  C_5 
REMARK    3  A    between atoms: C_15  and  C_16 
REMARK    4  A    between atoms: C_16  and  C_37 
REMARK    5  A    between atoms: N_17  and  C_19 
REMARK    6  A    between atoms: C_22  and  N_23 
REMARK       I    between atoms: N_23  and  C_25 
REMARK    7  A    between atoms: C_25  and  C_27 
REMARK    8  A    between atoms: C_27  and  N_28 
ROOT
ATOM      1  C   UNL d   1      36.254  44.367   7.391  0.00  0.00     0.037 C 
ATOM      2  N   UNL d   1      35.547  43.780   8.295  0.00  0.00    -0.358 N 
ATOM      3  HN  UNL d   1      36.040  43.185   8.961  1.00  0.00     0.166 HD
ENDROOT
BRANCH   1   4
ATOM      4  C   UNL d   1      35.550  45.402   6.575  0.00  0.00     0.164 A 
ATOM      5  C   UNL d   1      35.802  45.208   5.117  0.00  0.00     0.236 A 
ATOM      6  N   UNL d   1      36.492  46.362   4.624  0.00  0.00    -0.326 N 
ATOM      7  O   UNL d   1      35.475  44.214   4.414  0.00  0.00    -0.272 OA
ATOM      8  C   UNL d   1      36.685  47.281   5.689  0.00  0.00     0.043 A 
ATOM      9  HN  UNL d   1      36.796  46.501   3.661  1.00  0.00     0.169 HD
ATOM     10  C   UNL d   1      36.143  46.756   6.852  0.00  0.00    -0.012 A 
ATOM     11  C   UNL d   1      37.301  48.518   5.665  0.00  0.00     0.047 A 
ATOM     12  C   UNL d   1      36.258  47.547   7.979  0.00  0.00     0.012 A 
ATOM     13  C   UNL d   1      36.873  48.785   7.964  0.00  0.00     0.018 A 
ATOM     14  C   UNL d   1      37.408  49.296   6.799  0.00  0.00     0.041 A 
BRANCH  14  15
ATOM     15  C   UNL d   1      38.049  50.599   6.813  0.00  0.00     0.293 C 
ATOM     16  O   UNL d   1      38.890  50.881   5.935  0.00  0.00    -0.259 OA
BRANCH  15  17
ATOM     17  O   UNL d   1      37.675  51.475   7.836  0.00  0.00    -0.323 OA
ATOM     18  C   UNL d   1      37.710  52.879   7.576  0.00  0.00     0.213 C 
ENDBRANCH  15  17
ENDBRANCH  14  15
ENDBRANCH   1   4
BRANCH   1  19
ATOM     19  C   UNL d   1      37.656  44.068   7.134  0.00  0.00    -0.012 A 
ATOM     20  C   UNL d   1      38.654  44.906   7.595  0.00  0.00     0.013 A 
ATOM     21  C   UNL d   1      39.968  44.613   7.340  0.00  0.00     0.001 A 
ATOM     22  C   UNL d   1      40.312  43.497   6.633  0.00  0.00     0.000 A 
ATOM     23  C   UNL d   1      39.315  42.676   6.181  0.00  0.00     0.001 A 
ATOM     24  C   UNL d   1      37.984  42.939   6.417  0.00  0.00     0.013 A 
ENDBRANCH   1  19
BRANCH   2  25
ATOM     25  C   UNL d   1      34.151  43.893   8.437  0.00  0.00     0.032 A 
ATOM     26  C   UNL d   1      33.273  43.014   7.797  0.00  0.00     0.031 A 
ATOM     27  C   UNL d   1      31.927  43.171   7.981  0.00  0.00     0.032 A 
ATOM     28  C   UNL d   1      31.395  44.175   8.779  0.00  0.00     0.037 A 
ATOM     29  C   UNL d   1      32.303  45.013   9.385  0.00  0.00     0.032 A 
ATOM     30  C   UNL d   1      33.674  44.912   9.245  0.00  0.00     0.031 A 
BRANCH  28  31
ATOM     31  N   UNL d   1      29.977  44.308   8.972  0.00  0.00    -0.318 N 
ATOM     32  C   UNL d   1      29.407  43.568  10.076  0.00  0.00     0.159 C 
ATOM     33  C   UNL d   1      29.243  45.129   8.089  0.00  0.00     0.263 C 
ATOM     34  O   UNL d   1      28.019  45.334   8.410  0.00  0.00    -0.267 OA
BRANCH  33  35
ATOM     35  C   UNL d   1      29.726  45.758   6.870  0.00  0.00     0.161 C 
BRANCH  35  36
ATOM     36  N   UNL d   1      30.533  46.905   6.987  0.00  0.00    -0.382 N 
ATOM     37  C   UNL d   1      30.942  47.556   5.780  0.00  0.00     0.152 C 
ATOM     38  C   UNL d   1      30.882  49.061   6.052  0.00  0.00     0.291 C 
ATOM     39  N   UNL d   1      31.854  49.420   7.083  0.00  0.00     0.087 N 
ATOM     40  C   UNL d   1      33.209  49.181   6.621  0.00  0.00     0.310 C 
ATOM     41  C   UNL d   1      31.620  48.609   8.267  0.00  0.00     0.291 C 
ATOM     42  C   UNL d   1      30.369  47.756   8.102  0.00  0.00     0.152 C 
ENDBRANCH  35  36
ENDBRANCH  33  35
ENDBRANCH  28  31
ENDBRANCH   2  25
TORSDOF 8
ENDMDL
MODEL 3
REMARK VINA RESULT:      -7.1      2.818     10.471
REMARK  8 active torsions:
REMARK  status: ('A' for Active; 'I' for Inactive)
REMARK    1  A    between atoms: O_2  and  C_3 
REMARK    2  A    between atoms: C_3  and  C_5 
REMARK    3  A    between atoms: C_15  and  C_16 
REMARK    4  A    between atoms: C_16  and  C_37 
REMARK    5  A    between atoms: N_17  and  C_19 
REMARK    6  A    between atoms: C_22  and  N_23 
REMARK       I    between atoms: N_23  and  C_25 
REMARK    7  A    between atoms: C_25  and  C_27 
REMARK    8  A    between atoms: C_27  and  N_28 
ROOT
ATOM      1  C   UNL d   1      28.995  51.350   6.301  0.00  0.00     0.037 C 
ATOM      2  N   UNL d   1      30.133  50.998   6.792  0.00  0.00    -0.358 N 
ATOM      3  HN  UNL d   1      30.522  51.579   7.535  1.00  0.00     0.166 HD
ENDROOT
BRANCH   1   4
ATOM      4  C   UNL d   1      28.344  50.369   5.380  0.00  0.00     0.164 A 
ATOM      5  C   UNL d   1      27.905  51.021   4.113  0.00  0.00     0.236 A 
ATOM      6  N   UNL d   1      26.480  50.917   4.025  0.00  0.00    -0.326 N 
ATOM      7  O   UNL d   1      28.638  51.574   3.248  0.00  0.00    -0.272 OA
ATOM      8  C   UNL d   1      25.991  50.227   5.166  0.00  0.00     0.043 A 
ATOM      9  HN  UNL d   1      25.907  51.281   3.264  1.00  0.00     0.169 HD
ATOM     10  C   UNL d   1      27.055  49.885   5.985  0.00  0.00    -0.012 A 
ATOM     11  C   UNL d   1      24.687  49.906   5.490  0.00  0.00     0.047 A 
ATOM     12  C   UNL d   1      26.727  49.204   7.142  0.00  0.00     0.012 A 
ATOM     13  C   UNL d   1      25.425  48.878   7.475  0.00  0.00     0.018 A 
ATOM     14  C   UNL d   1      24.376  49.225   6.649  0.00  0.00     0.041 A 
BRANCH  14  15
ATOM     15  C   UNL d   1      23.018  48.871   7.024  0.00  0.00     0.293 C 
ATOM     16  O   UNL d   1      22.657  47.678   6.977  0.00  0.00    -0.259 OA
BRANCH  15  17
ATOM     17  O   UNL d   1      22.181  49.918   7.422  0.00  0.00    -0.323 OA
ATOM     18  C   UNL d   1      20.898  50.035   6.805  0.00  0.00     0.213 C 
ENDBRANCH  15  17
ENDBRANCH  14  15
ENDBRANCH   1   4
BRANCH   1  19
ATOM     19  C   UNL d   1      28.344  52.622   6.585  0.00  0.00    -0.012 A 
ATOM     20  C   UNL d   1      27.330  52.703   7.521  0.00  0.00     0.013 A 
ATOM     21  C   UNL d   1      26.725  53.906   7.774  0.00  0.00     0.001 A 
ATOM     22  C   UNL d   1      27.111  55.037   7.111  0.00  0.00     0.000 A 
ATOM     23  C   UNL d   1      28.115  54.943   6.188  0.00  0.00     0.001 A 
ATOM     24  C   UNL d   1      28.745  53.751   5.907  0.00  0.00     0.013 A 
ENDBRANCH   1  19
BRANCH   2  25
ATOM     25  C   UNL d   1      30.884  49.879   6.385  0.00  0.00     0.032 A 
ATOM     26  C   UNL d   1      30.496  48.577   6.705  0.00  0.00     0.031 A 
ATOM     27  C   UNL d   1      31.264  47.530   6.275  0.00  0.00     0.032 A 
ATOM     28  C   UNL d   1      32.422  47.712   5.530  0.00  0.00     0.037 A 
ATOM     29  C   UNL d   1      32.760  49.015   5.243  0.00  0.00     0.032 A 
ATOM     30  C   UNL d   1      32.031  50.118   5.645  0.00  0.00     0.031 A 
BRANCH  28  31
ATOM     31  N   UNL d   1      33.203  46.596   5.073  0.00  0.00    -0.318 N 
ATOM     32  C   UNL d   1      33.003  46.192   3.699  0.00  0.00     0.159 C 
ATOM     33  C   UNL d   1      34.092  45.971   5.974  0.00  0.00     0.263 C 
ATOM     34  O   UNL d   1      34.873  45.092   5.463  0.00  0.00    -0.267 OA
BRANCH  33  35
ATOM     35  C   UNL d   1      34.213  46.219   7.401  0.00  0.00     0.161 C 
BRANCH  35  36
ATOM     36  N   UNL d   1      33.903  45.170   8.288  0.00  0.00    -0.382 N 
ATOM     37  C   UNL d   1      34.921  44.750   9.202  0.00  0.00     0.152 C 
ATOM     38  C   UNL d   1      34.221  44.449  10.529  0.00  0.00     0.291 C 
ATOM     39  N   UNL d   1      33.303  43.324  10.365  0.00  0.00     0.087 N 
ATOM     40  C   UNL d   1      34.028  42.108  10.044  0.00  0.00     0.310 C 
ATOM     41  C   UNL d   1      32.381  43.613   9.277  0.00  0.00     0.291 C 
ATOM     42  C   UNL d   1      32.579  45.031   8.759  0.00  0.00     0.152 C 
ENDBRANCH  35  36
ENDBRANCH  33  35
ENDBRANCH  28  31
ENDBRANCH   2  25
TORSDOF 8
ENDMDL
MODEL 4
REMARK VINA RESULT:      -7.0      3.554      8.028
REMARK  8 active torsions:
REMARK  status: ('A' for Active; 'I' for Inactive)
REMARK    1  A    between atoms: O_2  and  C_3 
REMARK    2  A    between atoms: C_3  and  C_5 
REMARK    3  A    between atoms: C_15  and  C_16 
REMARK    4  A    between atoms: C_16  and  C_37 
REMARK    5  A    between atoms: N_17  and  C_19 
REMARK    6  A    between atoms: C_22  and  N_23 
REMARK       I    between atoms: N_23  and  C_25 
REMARK    7  A    between atoms: C_25  and  C_27 
REMARK    8  A    between atoms: C_27  and  N_28 
ROOT
ATOM      1  C   UNL d   1      34.724  45.533   7.032  0.00  0.00     0.037 C 
ATOM      2  N   UNL d   1      35.730  45.133   6.334  0.00  0.00    -0.358 N 
ATOM      3  HN  UNL d   1      35.957  44.139   6.368  1.00  0.00     0.166 HD
ENDROOT
BRANCH   1   4
ATOM      4  C   UNL d   1      34.274  46.938   6.793  0.00  0.00     0.164 A 
ATOM      5  C   UNL d   1      34.601  47.818   7.953  0.00  0.00     0.236 A 
ATOM      6  N   UNL d   1      33.373  48.310   8.502  0.00  0.00    -0.326 N 
ATOM      7  O   UNL d   1      35.748  48.099   8.396  0.00  0.00    -0.272 OA
ATOM      8  C   UNL d   1      32.285  47.795   7.748  0.00  0.00     0.043 A 
ATOM      9  HN  UNL d   1      33.293  48.930   9.307  1.00  0.00     0.169 HD
ATOM     10  C   UNL d   1      32.773  46.988   6.732  0.00  0.00    -0.012 A 
ATOM     11  C   UNL d   1      30.931  48.009   7.925  0.00  0.00     0.047 A 
ATOM     12  C   UNL d   1      31.821  46.414   5.912  0.00  0.00     0.012 A 
ATOM     13  C   UNL d   1      30.464  46.623   6.081  0.00  0.00     0.018 A 
ATOM     14  C   UNL d   1      29.993  47.429   7.096  0.00  0.00     0.041 A 
BRANCH  14  15
ATOM     15  C   UNL d   1      28.563  47.629   7.251  0.00  0.00     0.293 C 
ATOM     16  O   UNL d   1      27.950  48.350   6.438  0.00  0.00    -0.259 OA
BRANCH  15  17
ATOM     17  O   UNL d   1      27.950  46.987   8.331  0.00  0.00    -0.323 OA
ATOM     18  C   UNL d   1      28.211  45.597   8.533  0.00  0.00     0.213 C 
ENDBRANCH  15  17
ENDBRANCH  14  15
ENDBRANCH   1   4
BRANCH   1  19
ATOM     19  C   UNL d   1      34.035  44.708   8.015  0.00  0.00    -0.012 A 
ATOM     20  C   UNL d   1      34.247  44.895   9.368  0.00  0.00     0.013 A 
ATOM     21  C   UNL d   1      33.594  44.107  10.280  0.00  0.00     0.001 A 
ATOM     22  C   UNL d   1      32.730  43.132   9.871  0.00  0.00     0.000 A 
ATOM     23  C   UNL d   1      32.529  42.957   8.530  0.00  0.00     0.001 A 
ATOM     24  C   UNL d   1      33.167  43.729   7.585  0.00  0.00     0.013 A 
ENDBRANCH   1  19
BRANCH   2  25
ATOM     25  C   UNL d   1      36.542  45.955   5.531  0.00  0.00     0.032 A 
ATOM     26  C   UNL d   1      36.274  46.156   4.176  0.00  0.00     0.031 A 
ATOM     27  C   UNL d   1      37.097  46.973   3.450  0.00  0.00     0.032 A 
ATOM     28  C   UNL d   1      38.195  47.612   4.010  0.00  0.00     0.037 A 
ATOM     29  C   UNL d   1      38.415  47.380   5.349  0.00  0.00     0.032 A 
ATOM     30  C   UNL d   1      37.625  46.568   6.141  0.00  0.00     0.031 A 
BRANCH  28  31
ATOM     31  N   UNL d   1      39.035  48.482   3.232  0.00  0.00    -0.318 N 
ATOM     32  C   UNL d   1      40.311  47.942   2.820  0.00  0.00     0.159 C 
ATOM     33  C   UNL d   1      38.576  49.782   2.931  0.00  0.00     0.263 C 
ATOM     34  O   UNL d   1      39.295  50.446   2.103  0.00  0.00    -0.267 OA
BRANCH  33  35
ATOM     35  C   UNL d   1      37.388  50.437   3.454  0.00  0.00     0.161 C 
BRANCH  35  36
ATOM     36  N   UNL d   1      37.463  51.034   4.727  0.00  0.00    -0.382 N 
ATOM     37  C   UNL d   1      37.922  52.387   4.801  0.00  0.00     0.152 C 
ATOM     38  C   UNL d   1      37.072  53.080   5.869  0.00  0.00     0.291 C 
ATOM     39  N   UNL d   1      37.319  52.472   7.174  0.00  0.00     0.087 N 
ATOM     40  C   UNL d   1      38.692  52.690   7.594  0.00  0.00     0.310 C 
ATOM     41  C   UNL d   1      37.084  51.039   7.089  0.00  0.00     0.291 C 
ATOM     42  C   UNL d   1      36.531  50.661   5.721  0.00  0.00     0.152 C 
ENDBRANCH  35  36
ENDBRANCH  33  35
ENDBRANCH  28  31
ENDBRANCH   2  25
TORSDOF 8
ENDMDL
MODEL 5
REMARK VINA RESULT:      -6.9      2.510      3.989
REMARK  8 active torsions:
REMARK  status: ('A' for Active; 'I' for Inactive)
REMARK    1  A    between atoms: O_2  and  C_3 
REMARK    2  A    between atoms: C_3  and  C_5 
REMARK    3  A    between atoms: C_15  and  C_16 
REMARK    4  A    between atoms: C_16  and  C_37 
REMARK    5  A    between atoms: N_17  and  C_19 
REMARK    6  A    between atoms: C_22  and  N_23 
REMARK       I    between atoms: N_23  and  C_25 
REMARK    7  A    between atoms: C_25  and  C_27 
REMARK    8  A    between atoms: C_27  and  N_28 
ROOT
ATOM      1  C   UNL d   1      33.778  48.048   5.643  0.00  0.00     0.037 C 
ATOM      2  N   UNL d   1      32.896  48.685   4.953  0.00  0.00    -0.358 N 
ATOM      3  HN  UNL d   1      32.773  48.407   3.980  1.00  0.00     0.166 HD
ENDROOT
BRANCH   1   4
ATOM      4  C   UNL d   1      33.784  48.316   7.113  0.00  0.00     0.164 A 
ATOM      5  C   UNL d   1      35.143  48.701   7.591  0.00  0.00     0.236 A 
ATOM      6  N   UNL d   1      35.586  47.711   8.526  0.00  0.00    -0.326 N 
ATOM      7  O   UNL d   1      35.811  49.715   7.250  0.00  0.00    -0.272 OA
ATOM      8  C   UNL d   1      34.578  46.722   8.673  0.00  0.00     0.043 A 
ATOM      9  HN  UNL d   1      36.484  47.716   9.009  1.00  0.00     0.169 HD
ATOM     10  C   UNL d   1      33.500  47.044   7.863  0.00  0.00    -0.012 A 
ATOM     11  C   UNL d   1      34.582  45.593   9.468  0.00  0.00     0.047 A 
ATOM     12  C   UNL d   1      32.436  46.163   7.902  0.00  0.00     0.012 A 
ATOM     13  C   UNL d   1      32.431  45.031   8.695  0.00  0.00     0.018 A 
ATOM     14  C   UNL d   1      33.511  44.724   9.497  0.00  0.00     0.041 A 
BRANCH  14  15
ATOM     15  C   UNL d   1      33.480  43.526  10.319  0.00  0.00     0.293 C 
ATOM     16  O   UNL d   1      32.384  43.078  10.713  0.00  0.00    -0.259 OA
BRANCH  15  17
ATOM     17  O   UNL d   1      34.712  42.939  10.625  0.00  0.00    -0.323 OA
ATOM     18  C   UNL d   1      35.150  41.830   9.839  0.00  0.00     0.213 C 
ENDBRANCH  15  17
ENDBRANCH  14  15
ENDBRANCH   1   4
BRANCH   1  19
ATOM     19  C   UNL d   1      34.743  47.118   5.071  0.00  0.00    -0.012 A 
ATOM     20  C   UNL d   1      35.926  47.575   4.522  0.00  0.00     0.013 A 
ATOM     21  C   UNL d   1      36.820  46.687   3.984  0.00  0.00     0.001 A 
ATOM     22  C   UNL d   1      36.561  45.346   3.982  0.00  0.00     0.000 A 
ATOM     23  C   UNL d   1      35.387  44.907   4.529  0.00  0.00     0.001 A 
ATOM     24  C   UNL d   1      34.464  45.769   5.077  0.00  0.00     0.013 A 
ENDBRANCH   1  19
BRANCH   2  25
ATOM     25  C   UNL d   1      32.090  49.735   5.433  0.00  0.00     0.032 A 
ATOM     26  C   UNL d   1      32.374  51.071   5.144  0.00  0.00     0.031 A 
ATOM     27  C   UNL d   1      31.548  52.046   5.633  0.00  0.00     0.032 A 
ATOM     28  C   UNL d   1      30.435  51.757   6.412  0.00  0.00     0.037 A 
ATOM     29  C   UNL d   1      30.202  50.425   6.668  0.00  0.00     0.032 A 
ATOM     30  C   UNL d   1      30.993  49.391   6.206  0.00  0.00     0.031 A 
BRANCH  28  31
ATOM     31  N   UNL d   1      29.570  52.798   6.900  0.00  0.00    -0.318 N 
ATOM     32  C   UNL d   1      30.051  53.552   8.036  0.00  0.00     0.159 C 
ATOM     33  C   UNL d   1      28.331  53.010   6.260  0.00  0.00     0.263 C 
ATOM     34  O   UNL d   1      27.683  54.050   6.636  0.00  0.00    -0.267 OA
BRANCH  33  35
ATOM     35  C   UNL d   1      27.721  52.183   5.231  0.00  0.00     0.161 C 
BRANCH  35  36
ATOM     36  N   UNL d   1      26.531  51.499   5.543  0.00  0.00    -0.382 N 
ATOM     37  C   UNL d   1      25.345  51.872   4.835  0.00  0.00     0.152 C 
ATOM     38  C   UNL d   1      24.578  50.578   4.553  0.00  0.00     0.291 C 
ATOM     39  N   UNL d   1      24.151  49.968   5.811  0.00  0.00     0.087 N 
ATOM     40  C   UNL d   1      23.200  50.820   6.502  0.00  0.00     0.310 C 
ATOM     41  C   UNL d   1      25.310  49.778   6.670  0.00  0.00     0.291 C 
ATOM     42  C   UNL d   1      26.594  50.145   5.937  0.00  0.00     0.152 C 
ENDBRANCH  35  36
ENDBRANCH  33  35
ENDBRANCH  28  31
ENDBRANCH   2  25
TORSDOF 8
ENDMDL
MODEL 6
REMARK VINA RESULT:      -6.9      3.116      5.619
REMARK  8 active torsions:
REMARK  status: ('A' for Active; 'I' for Inactive)
REMARK    1  A    between atoms: O_2  and  C_3 
REMARK    2  A    between atoms: C_3  and  C_5 
REMARK    3  A    between atoms: C_15  and  C_16 
REMARK    4  A    between atoms: C_16  and  C_37 
REMARK    5  A    between atoms: N_17  and  C_19 
REMARK    6  A    between atoms: C_22  and  N_23 
REMARK       I    between atoms: N_23  and  C_25 
REMARK    7  A    between atoms: C_25  and  C_27 
REMARK    8  A    between atoms: C_27  and  N_28 
ROOT
ATOM      1  C   UNL d   1      31.686  47.095   7.432  0.00  0.00     0.037 C 
ATOM      2  N   UNL d   1      30.779  47.925   7.817  0.00  0.00    -0.358 N 
ATOM      3  HN  UNL d   1      30.276  47.704   8.677  1.00  0.00     0.166 HD
ENDROOT
BRANCH   1   4
ATOM      4  C   UNL d   1      32.557  47.547   6.305  0.00  0.00     0.164 A 
ATOM      5  C   UNL d   1      32.635  46.515   5.231  0.00  0.00     0.236 A 
ATOM      6  N   UNL d   1      33.996  46.083   5.123  0.00  0.00    -0.326 N 
ATOM      7  O   UNL d   1      31.686  46.079   4.524  0.00  0.00    -0.272 OA
ATOM      8  C   UNL d   1      34.787  46.791   6.066  0.00  0.00     0.043 A 
ATOM      9  HN  UNL d   1      34.342  45.378   4.473  1.00  0.00     0.169 HD
ATOM     10  C   UNL d   1      33.979  47.664   6.778  0.00  0.00    -0.012 A 
ATOM     11  C   UNL d   1      36.144  46.693   6.306  0.00  0.00     0.047 A 
ATOM     12  C   UNL d   1      34.617  48.426   7.738  0.00  0.00     0.012 A 
ATOM     13  C   UNL d   1      35.975  48.334   7.985  0.00  0.00     0.018 A 
ATOM     14  C   UNL d   1      36.767  47.460   7.268  0.00  0.00     0.041 A 
BRANCH  14  15
ATOM     15  C   UNL d   1      38.190  47.383   7.550  0.00  0.00     0.293 C 
ATOM     16  O   UNL d   1      38.782  48.381   8.010  0.00  0.00    -0.259 OA
BRANCH  15  17
ATOM     17  O   UNL d   1      38.821  46.165   7.278  0.00  0.00    -0.323 OA
ATOM     18  C   UNL d   1      39.189  45.330   8.377  0.00  0.00     0.213 C 
ENDBRANCH  15  17
ENDBRANCH  14  15
ENDBRANCH   1   4
BRANCH   1  19
ATOM     19  C   UNL d   1      31.886  45.778   8.021  0.00  0.00    -0.012 A 
ATOM     20  C   UNL d   1      33.009  45.506   8.780  0.00  0.00     0.013 A 
ATOM     21  C   UNL d   1      33.184  44.260   9.324  0.00  0.00     0.001 A 
ATOM     22  C   UNL d   1      32.260  43.274   9.127  0.00  0.00     0.000 A 
ATOM     23  C   UNL d   1      31.153  43.556   8.374  0.00  0.00     0.001 A 
ATOM     24  C   UNL d   1      30.944  44.795   7.812  0.00  0.00     0.013 A 
ENDBRANCH   1  19
BRANCH   2  25
ATOM     25  C   UNL d   1      30.423  49.110   7.146  0.00  0.00     0.032 A 
ATOM     26  C   UNL d   1      29.243  49.212   6.407  0.00  0.00     0.031 A 
ATOM     27  C   UNL d   1      28.949  50.394   5.784  0.00  0.00     0.032 A 
ATOM     28  C   UNL d   1      29.785  51.501   5.856  0.00  0.00     0.037 A 
ATOM     29  C   UNL d   1      30.935  51.347   6.595  0.00  0.00     0.032 A 
ATOM     30  C   UNL d   1      31.293  50.184   7.250  0.00  0.00     0.031 A 
BRANCH  28  31
ATOM     31  N   UNL d   1      29.446  52.740   5.208  0.00  0.00    -0.318 N 
ATOM     32  C   UNL d   1      29.924  52.907   3.853  0.00  0.00     0.159 C 
ATOM     33  C   UNL d   1      28.692  53.698   5.919  0.00  0.00     0.263 C 
ATOM     34  O   UNL d   1      28.287  54.704   5.236  0.00  0.00    -0.267 OA
BRANCH  33  35
ATOM     35  C   UNL d   1      28.331  53.660   7.327  0.00  0.00     0.161 C 
BRANCH  35  36
ATOM     36  N   UNL d   1      27.360  54.568   7.790  0.00  0.00    -0.382 N 
ATOM     37  C   UNL d   1      26.003  54.118   7.846  0.00  0.00     0.152 C 
ATOM     38  C   UNL d   1      25.399  54.704   9.125  0.00  0.00     0.291 C 
ATOM     39  N   UNL d   1      25.364  56.162   9.037  0.00  0.00     0.087 N 
ATOM     40  C   UNL d   1      24.473  56.594   7.975  0.00  0.00     0.310 C 
ATOM     41  C   UNL d   1      26.700  56.659   8.748  0.00  0.00     0.291 C 
ATOM     42  C   UNL d   1      27.716  55.524   8.767  0.00  0.00     0.152 C 
ENDBRANCH  35  36
ENDBRANCH  33  35
ENDBRANCH  28  31
ENDBRANCH   2  25
TORSDOF 8
ENDMDL
MODEL 7
REMARK VINA RESULT:      -6.9      2.917      4.392
REMARK  8 active torsions:
REMARK  status: ('A' for Active; 'I' for Inactive)
REMARK    1  A    between atoms: O_2  and  C_3 
REMARK    2  A    between atoms: C_3  and  C_5 
REMARK    3  A    between atoms: C_15  and  C_16 
REMARK    4  A    between atoms: C_16  and  C_37 
REMARK    5  A    between atoms: N_17  and  C_19 
REMARK    6  A    between atoms: C_22  and  N_23 
REMARK       I    between atoms: N_23  and  C_25 
REMARK    7  A    between atoms: C_25  and  C_27 
REMARK    8  A    between atoms: C_27  and  N_28 
ROOT
ATOM      1  C   UNL d   1      33.446  48.310   5.491  0.00  0.00     0.037 C 
ATOM      2  N   UNL d   1      32.652  49.065   4.814  0.00  0.00    -0.358 N 
ATOM      3  HN  UNL d   1      32.602  48.908   3.807  1.00  0.00     0.166 HD
ENDROOT
BRANCH   1   4
ATOM      4  C   UNL d   1      33.336  48.405   6.979  0.00  0.00     0.164 A 
ATOM      5  C   UNL d   1      34.681  48.410   7.624  0.00  0.00     0.236 A 
ATOM      6  N   UNL d   1      34.784  47.248   8.454  0.00  0.00    -0.326 N 
ATOM      7  O   UNL d   1      35.589  49.274   7.484  0.00  0.00    -0.272 OA
ATOM      8  C   UNL d   1      33.574  46.509   8.375  0.00  0.00     0.043 A 
ATOM      9  HN  UNL d   1      35.598  46.991   9.012  1.00  0.00     0.169 HD
ATOM     10  C   UNL d   1      32.696  47.158   7.522  0.00  0.00    -0.012 A 
ATOM     11  C   UNL d   1      33.238  45.328   9.009  0.00  0.00     0.047 A 
ATOM     12  C   UNL d   1      31.468  46.549   7.347  0.00  0.00     0.012 A 
ATOM     13  C   UNL d   1      31.123  45.367   7.976  0.00  0.00     0.018 A 
ATOM     14  C   UNL d   1      32.007  44.732   8.824  0.00  0.00     0.041 A 
BRANCH  14  15
ATOM     15  C   UNL d   1      31.619  43.491   9.471  0.00  0.00     0.293 C 
ATOM     16  O   UNL d   1      32.459  42.854  10.138  0.00  0.00    -0.259 OA
BRANCH  15  17
ATOM     17  O   UNL d   1      30.293  43.079   9.299  0.00  0.00    -0.323 OA
ATOM     18  C   UNL d   1      29.437  43.049  10.442  0.00  0.00     0.213 C 
ENDBRANCH  15  17
ENDBRANCH  14  15
ENDBRANCH   1   4
BRANCH   1  19
ATOM     19  C   UNL d   1      34.419  47.406   4.892  0.00  0.00    -0.012 A 
ATOM     20  C   UNL d   1      35.618  47.884   4.398  0.00  0.00     0.013 A 
ATOM     21  C   UNL d   1      36.520  47.020   3.834  0.00  0.00     0.001 A 
ATOM     22  C   UNL d   1      36.252  45.684   3.750  0.00  0.00     0.000 A 
ATOM     23  C   UNL d   1      35.061  45.224   4.241  0.00  0.00     0.001 A 
ATOM     24  C   UNL d   1      34.131  46.061   4.815  0.00  0.00     0.013 A 
ENDBRANCH   1  19
BRANCH   2  25
ATOM     25  C   UNL d   1      31.850  50.091   5.349  0.00  0.00     0.032 A 
ATOM     26  C   UNL d   1      32.192  51.438   5.216  0.00  0.00     0.031 A 
ATOM     27  C   UNL d   1      31.368  52.389   5.752  0.00  0.00     0.032 A 
ATOM     28  C   UNL d   1      30.199  52.065   6.430  0.00  0.00     0.037 A 
ATOM     29  C   UNL d   1      29.910  50.724   6.533  0.00  0.00     0.032 A 
ATOM     30  C   UNL d   1      30.696  49.712   6.016  0.00  0.00     0.031 A 
BRANCH  28  31
ATOM     31  N   UNL d   1      29.338  53.083   6.969  0.00  0.00    -0.318 N 
ATOM     32  C   UNL d   1      29.811  53.762   8.154  0.00  0.00     0.159 C 
ATOM     33  C   UNL d   1      28.109  53.345   6.327  0.00  0.00     0.263 C 
ATOM     34  O   UNL d   1      27.466  54.367   6.757  0.00  0.00    -0.267 OA
BRANCH  33  35
ATOM     35  C   UNL d   1      27.505  52.587   5.243  0.00  0.00     0.161 C 
BRANCH  35  36
ATOM     36  N   UNL d   1      26.348  51.835   5.519  0.00  0.00    -0.382 N 
ATOM     37  C   UNL d   1      25.129  52.235   4.886  0.00  0.00     0.152 C 
ATOM     38  C   UNL d   1      24.394  50.949   4.498  0.00  0.00     0.291 C 
ATOM     39  N   UNL d   1      24.028  50.202   5.700  0.00  0.00     0.087 N 
ATOM     40  C   UNL d   1      23.073  50.948   6.500  0.00  0.00     0.310 C 
ATOM     41  C   UNL d   1      25.219  49.969   6.502  0.00  0.00     0.291 C 
ATOM     42  C   UNL d   1      26.467  50.451   5.774  0.00  0.00     0.152 C 
ENDBRANCH  35  36
ENDBRANCH  33  35
ENDBRANCH  28  31
ENDBRANCH   2  25
TORSDOF 8
ENDMDL
MODEL 8
REMARK VINA RESULT:      -6.7      3.365      7.340
REMARK  8 active torsions:
REMARK  status: ('A' for Active; 'I' for Inactive)
REMARK    1  A    between atoms: O_2  and  C_3 
REMARK    2  A    between atoms: C_3  and  C_5 
REMARK    3  A    between atoms: C_15  and  C_16 
REMARK    4  A    between atoms: C_16  and  C_37 
REMARK    5  A    between atoms: N_17  and  C_19 
REMARK    6  A    between atoms: C_22  and  N_23 
REMARK       I    between atoms: N_23  and  C_25 
REMARK    7  A    between atoms: C_25  and  C_27 
REMARK    8  A    between atoms: C_27  and  N_28 
ROOT
ATOM      1  C   UNL d   1      36.704  46.626   6.216  0.00  0.00     0.037 C 
ATOM      2  N   UNL d   1      36.654  45.430   6.692  0.00  0.00    -0.358 N 
ATOM      3  HN  UNL d   1      37.455  44.823   6.519  1.00  0.00     0.166 HD
ENDROOT
BRANCH   1   4
ATOM      4  C   UNL d   1      35.631  47.562   6.670  0.00  0.00     0.164 A 
ATOM      5  C   UNL d   1      34.617  47.787   5.600  0.00  0.00     0.236 A 
ATOM      6  N   UNL d   1      34.640  49.174   5.245  0.00  0.00    -0.326 N 
ATOM      7  O   UNL d   1      33.856  46.926   5.079  0.00  0.00    -0.272 OA
ATOM      8  C   UNL d   1      35.610  49.843   6.039  0.00  0.00     0.043 A 
ATOM      9  HN  UNL d   1      34.054  49.612   4.535  1.00  0.00     0.169 HD
ATOM     10  C   UNL d   1      36.211  48.931   6.892  0.00  0.00    -0.012 A 
ATOM     11  C   UNL d   1      35.963  51.179   6.031  0.00  0.00     0.047 A 
ATOM     12  C   UNL d   1      37.183  49.443   7.730  0.00  0.00     0.012 A 
ATOM     13  C   UNL d   1      37.543  50.779   7.729  0.00  0.00     0.018 A 
ATOM     14  C   UNL d   1      36.935  51.675   6.875  0.00  0.00     0.041 A 
BRANCH  14  15
ATOM     15  C   UNL d   1      37.334  53.072   6.894  0.00  0.00     0.293 C 
ATOM     16  O   UNL d   1      37.855  53.549   7.922  0.00  0.00    -0.259 OA
BRANCH  15  17
ATOM     17  O   UNL d   1      37.101  53.810   5.729  0.00  0.00    -0.323 OA
ATOM     18  C   UNL d   1      38.227  54.269   4.979  0.00  0.00     0.213 C 
ENDBRANCH  15  17
ENDBRANCH  14  15
ENDBRANCH   1   4
BRANCH   1  19
ATOM     19  C   UNL d   1      37.720  47.087   5.279  0.00  0.00    -0.012 A 
ATOM     20  C   UNL d   1      37.397  47.365   3.965  0.00  0.00     0.013 A 
ATOM     21  C   UNL d   1      38.366  47.794   3.096  0.00  0.00     0.001 A 
ATOM     22  C   UNL d   1      39.657  47.953   3.510  0.00  0.00     0.000 A 
ATOM     23  C   UNL d   1      39.965  47.674   4.813  0.00  0.00     0.001 A 
ATOM     24  C   UNL d   1      39.018  47.241   5.715  0.00  0.00     0.013 A 
ENDBRANCH   1  19
BRANCH   2  25
ATOM     25  C   UNL d   1      35.583  44.893   7.431  0.00  0.00     0.032 A 
ATOM     26  C   UNL d   1      34.716  43.944   6.886  0.00  0.00     0.031 A 
ATOM     27  C   UNL d   1      33.698  43.454   7.657  0.00  0.00     0.032 A 
ATOM     28  C   UNL d   1      33.490  43.867   8.967  0.00  0.00     0.037 A 
ATOM     29  C   UNL d   1      34.372  44.804   9.455  0.00  0.00     0.032 A 
ATOM     30  C   UNL d   1      35.421  45.340   8.733  0.00  0.00     0.031 A 
BRANCH  28  31
ATOM     31  N   UNL d   1      32.425  43.323   9.764  0.00  0.00    -0.318 N 
ATOM     32  C   UNL d   1      32.812  42.680  11.000  0.00  0.00     0.159 C 
ATOM     33  C   UNL d   1      31.097  43.442   9.300  0.00  0.00     0.263 C 
ATOM     34  O   UNL d   1      30.186  43.085  10.128  0.00  0.00    -0.267 OA
BRANCH  33  35
ATOM     35  C   UNL d   1      30.662  43.922   7.999  0.00  0.00     0.161 C 
BRANCH  35  36
ATOM     36  N   UNL d   1      30.170  45.238   7.904  0.00  0.00    -0.382 N 
ATOM     37  C   UNL d   1      28.851  45.491   8.396  0.00  0.00     0.152 C 
ATOM     38  C   UNL d   1      28.894  46.857   9.086  0.00  0.00     0.291 C 
ATOM     39  N   UNL d   1      29.195  47.900   8.107  0.00  0.00     0.087 N 
ATOM     40  C   UNL d   1      28.128  48.013   7.129  0.00  0.00     0.310 C 
ATOM     41  C   UNL d   1      30.427  47.565   7.411  0.00  0.00     0.291 C 
ATOM     42  C   UNL d   1      31.069  46.322   8.012  0.00  0.00     0.152 C 
ENDBRANCH  35  36
ENDBRANCH  33  35
ENDBRANCH  28  31
ENDBRANCH   2  25
TORSDOF 8
ENDMDL
MODEL 9
REMARK VINA RESULT:      -6.6      3.057      4.740
REMARK  8 active torsions:
REMARK  status: ('A' for Active; 'I' for Inactive)
REMARK    1  A    between atoms: O_2  and  C_3 
REMARK    2  A    between atoms: C_3  and  C_5 
REMARK    3  A    between atoms: C_15  and  C_16 
REMARK    4  A    between atoms: C_16  and  C_37 
REMARK    5  A    between atoms: N_17  and  C_19 
REMARK    6  A    between atoms: C_22  and  N_23 
REMARK       I    between atoms: N_23  and  C_25 
REMARK    7  A    between atoms: C_25  and  C_27 
REMARK    8  A    between atoms: C_27  and  N_28 
ROOT
ATOM      1  C   UNL d   1      35.511  47.569   5.729  0.00  0.00     0.037 C 
ATOM      2  N   UNL d   1      35.415  48.264   4.649  0.00  0.00    -0.358 N 
ATOM      3  HN  UNL d   1      35.851  47.885   3.808  1.00  0.00     0.166 HD
ENDROOT
BRANCH   1   4
ATOM      4  C   UNL d   1      34.680  48.028   6.883  0.00  0.00     0.164 A 
ATOM      5  C   UNL d   1      35.506  48.198   8.114  0.00  0.00     0.236 A 
ATOM      6  N   UNL d   1      35.032  47.277   9.102  0.00  0.00    -0.326 N 
ATOM      7  O   UNL d   1      36.461  49.004   8.284  0.00  0.00    -0.272 OA
ATOM      8  C   UNL d   1      33.944  46.537   8.567  0.00  0.00     0.043 A 
ATOM      9  HN  UNL d   1      35.415  47.169  10.041  1.00  0.00     0.169 HD
ATOM     10  C   UNL d   1      33.704  46.952   7.267  0.00  0.00    -0.012 A 
ATOM     11  C   UNL d   1      33.190  45.548   9.170  0.00  0.00     0.047 A 
ATOM     12  C   UNL d   1      32.665  46.314   6.615  0.00  0.00     0.012 A 
ATOM     13  C   UNL d   1      31.906  45.323   7.210  0.00  0.00     0.018 A 
ATOM     14  C   UNL d   1      32.156  44.921   8.506  0.00  0.00     0.041 A 
BRANCH  14  15
ATOM     15  C   UNL d   1      31.343  43.877   9.105  0.00  0.00     0.293 C 
ATOM     16  O   UNL d   1      31.869  43.057   9.884  0.00  0.00    -0.259 OA
BRANCH  15  17
ATOM     17  O   UNL d   1      29.988  43.857   8.758  0.00  0.00    -0.323 OA
ATOM     18  C   UNL d   1      29.087  44.690   9.489  0.00  0.00     0.213 C 
ENDBRANCH  15  17
ENDBRANCH  14  15
ENDBRANCH   1   4
BRANCH   1  19
ATOM     19  C   UNL d   1      36.370  46.401   5.872  0.00  0.00    -0.012 A 
ATOM     20  C   UNL d   1      37.678  46.533   6.297  0.00  0.00     0.013 A 
ATOM     21  C   UNL d   1      38.474  45.425   6.422  0.00  0.00     0.001 A 
ATOM     22  C   UNL d   1      37.992  44.181   6.132  0.00  0.00     0.000 A 
ATOM     23  C   UNL d   1      36.696  44.063   5.712  0.00  0.00     0.001 A 
ATOM     24  C   UNL d   1      35.867  45.154   5.574  0.00  0.00     0.013 A 
ENDBRANCH   1  19
BRANCH   2  25
ATOM     25  C   UNL d   1      34.761  49.505   4.535  0.00  0.00     0.032 A 
ATOM     26  C   UNL d   1      35.294  50.672   5.088  0.00  0.00     0.031 A 
ATOM     27  C   UNL d   1      34.613  51.849   4.937  0.00  0.00     0.032 A 
ATOM     28  C   UNL d   1      33.407  51.930   4.254  0.00  0.00     0.037 A 
ATOM     29  C   UNL d   1      32.926  50.752   3.730  0.00  0.00     0.032 A 
ATOM     30  C   UNL d   1      33.560  49.529   3.844  0.00  0.00     0.031 A 
BRANCH  28  31
ATOM     31  N   UNL d   1      32.719  53.182   4.092  0.00  0.00    -0.318 N 
ATOM     32  C   UNL d   1      33.211  54.054   3.049  0.00  0.00     0.159 C 
ATOM     33  C   UNL d   1      31.635  53.480   4.946  0.00  0.00     0.263 C 
ATOM     34  O   UNL d   1      30.966  54.532   4.647  0.00  0.00    -0.267 OA
BRANCH  33  35
ATOM     35  C   UNL d   1      31.204  52.727   6.113  0.00  0.00     0.161 C 
BRANCH  35  36
ATOM     36  N   UNL d   1      29.924  52.142   6.093  0.00  0.00    -0.382 N 
ATOM     37  C   UNL d   1      28.892  52.776   6.853  0.00  0.00     0.152 C 
ATOM     38  C   UNL d   1      27.612  52.682   6.019  0.00  0.00     0.291 C 
ATOM     39  N   UNL d   1      27.225  51.282   5.856  0.00  0.00     0.087 N 
ATOM     40  C   UNL d   1      26.879  50.689   7.135  0.00  0.00     0.310 C 
ATOM     41  C   UNL d   1      28.341  50.538   5.290  0.00  0.00     0.291 C 
ATOM     42  C   UNL d   1      29.487  51.473   4.928  0.00  0.00     0.152 C 
ENDBRANCH  35  36
ENDBRANCH  33  35
ENDBRANCH  28  31
ENDBRANCH   2  25
TORSDOF 8
ENDMDL
