MODEL 1
REMARK VINA RESULT:      -7.1      0.000      0.000
REMARK  7 active torsions:
REMARK  status: ('A' for Active; 'I' for Inactive)
REMARK    1  A    between atoms: O_2  and  C_3 
REMARK    2  A    between atoms: C_8  and  N_9 
REMARK       I    between atoms: N_9  and  C_11 
REMARK    3  A    between atoms: C_11  and  C_13 
REMARK    4  A    between atoms: C_14  and  C_15 
REMARK    5  A    between atoms: C_15  and  N_16 
REMARK    6  A    between atoms: C_19  and  N_20 
REMARK    7  A    between atoms: N_20  and  C_22 
ROOT
ATOM      1  C   UNL d   1     -51.543   1.287 -18.314  0.00  0.00     0.097 A 
ATOM      2  C   UNL d   1     -52.657   1.749 -19.008  0.00  0.00     0.069 A 
ATOM      3  C   UNL d   1     -52.786   1.502 -20.342  0.00  0.00     0.049 A 
ATOM      4  C   UNL d   1     -51.803   0.789 -21.000  0.00  0.00     0.037 A 
ATOM      5  C   UNL d   1     -50.687   0.320 -20.322  0.00  0.00     0.050 A 
ATOM      6  C   UNL d   1     -50.559   0.573 -18.968  0.00  0.00     0.070 A 
ATOM      7  C   UNL d   1     -51.980   0.577 -22.353  0.00  0.00     0.119 A 
ATOM      8  N   UNL d   1     -53.087   1.064 -22.978  0.00  0.00    -0.338 N 
ATOM      9  HN  UNL d   1     -53.207   0.902 -23.978  1.00  0.00     0.168 HD
ATOM     10  C   UNL d   1     -54.024   1.754 -22.306  0.00  0.00     0.182 A 
ATOM     11  N   UNL d   1     -53.869   1.971 -20.982  0.00  0.00    -0.351 N 
ATOM     12  HN  UNL d   1     -54.577   2.494 -20.466  1.00  0.00     0.166 HD
ENDROOT
BRANCH   6  13
ATOM     13  N   UNL d   1     -49.441   0.128 -18.202  0.00  0.00    -0.314 N 
ATOM     14  C   UNL d   1     -49.410  -1.177 -17.619  0.00  0.00     0.301 C 
ATOM     15  O   UNL d   1     -50.332  -2.018 -17.764  0.00  0.00    -0.258 OA
ATOM     16  HN  UNL d   1     -48.647   0.753 -18.067  1.00  0.00     0.170 HD
BRANCH  14  17
ATOM     17  C   UNL d   1     -48.260  -1.537 -16.829  0.00  0.00    -0.004 C 
ATOM     18  C   UNL d   1     -47.286  -1.863 -16.157  0.00  0.00    -0.066 C 
BRANCH  18  19
ATOM     19  C   UNL d   1     -46.116  -2.229 -15.357  0.00  0.00     0.365 C 
BRANCH  19  20
ATOM     20  N   UNL d   1     -44.923  -2.031 -16.154  0.00  0.00     0.090 N 
ATOM     21  C   UNL d   1     -43.802  -1.942 -15.238  0.00  0.00     0.310 C 
ATOM     22  C   UNL d   1     -44.738  -3.217 -16.966  0.00  0.00     0.310 C 
ENDBRANCH  19  20
ENDBRANCH  18  19
ENDBRANCH  14  17
ENDBRANCH   6  13
BRANCH   1  23
ATOM     23  O   UNL d   1     -51.425   1.545 -16.960  0.00  0.00    -0.354 OA
ATOM     24  C   UNL d   1     -52.006   2.703 -16.403  0.00  0.00     0.210 C 
ENDBRANCH   1  23
BRANCH   7  25
ATOM     25  N   UNL d   1     -51.006  -0.166 -23.115  0.00  0.00    -0.342 N 
ATOM     26  HN  UNL d   1     -50.197   0.309 -23.516  1.00  0.00     0.167 HD
BRANCH  25  27
ATOM     27  C   UNL d   1     -51.182  -1.585 -23.307  0.00  0.00     0.035 A 
ATOM     28  C   UNL d   1     -50.766  -2.511 -22.393  0.00  0.00     0.056 A 
ATOM     29  C   UNL d   1     -50.972  -3.848 -22.684  0.00  0.00     0.074 A 
ATOM     30 CL   UNL d   1     -50.462  -5.079 -21.549  0.00  0.00    -0.081 Cl
ATOM     31  C   UNL d   1     -51.572  -4.275 -23.849  0.00  0.00     0.138 A 
ATOM     32  F   UNL d   1     -51.766  -5.605 -24.125  0.00  0.00    -0.204 F 
ATOM     33  C   UNL d   1     -51.990  -3.331 -24.767  0.00  0.00     0.046 A 
ATOM     34  C   UNL d   1     -51.785  -2.018 -24.474  0.00  0.00     0.032 A 
ENDBRANCH  25  27
ENDBRANCH   7  25
TORSDOF 7
ENDMDL
MODEL 2
REMARK VINA RESULT:      -6.8      1.698      2.100
REMARK  7 active torsions:
REMARK  status: ('A' for Active; 'I' for Inactive)
REMARK    1  A    between atoms: O_2  and  C_3 
REMARK    2  A    between atoms: C_8  and  N_9 
REMARK       I    between atoms: N_9  and  C_11 
REMARK    3  A    between atoms: C_11  and  C_13 
REMARK    4  A    between atoms: C_14  and  C_15 
REMARK    5  A    between atoms: C_15  and  N_16 
REMARK    6  A    between atoms: C_19  and  N_20 
REMARK    7  A    between atoms: N_20  and  C_22 
ROOT
ATOM      1  C   UNL d   1     -50.800   1.096 -16.897  0.00  0.00     0.097 A 
ATOM      2  C   UNL d   1     -51.926   1.589 -17.549  0.00  0.00     0.069 A 
ATOM      3  C   UNL d   1     -52.085   1.395 -18.888  0.00  0.00     0.049 A 
ATOM      4  C   UNL d   1     -51.120   0.703 -19.595  0.00  0.00     0.037 A 
ATOM      5  C   UNL d   1     -49.993   0.203 -18.960  0.00  0.00     0.050 A 
ATOM      6  C   UNL d   1     -49.834   0.404 -17.599  0.00  0.00     0.070 A 
ATOM      7  C   UNL d   1     -51.328   0.544 -20.950  0.00  0.00     0.119 A 
ATOM      8  N   UNL d   1     -52.445   1.059 -21.532  0.00  0.00    -0.338 N 
ATOM      9  HN  UNL d   1     -52.587   0.937 -22.535  1.00  0.00     0.168 HD
ATOM     10  C   UNL d   1     -53.364   1.727 -20.814  0.00  0.00     0.182 A 
ATOM     11  N   UNL d   1     -53.179   1.893 -19.486  0.00  0.00    -0.351 N 
ATOM     12  HN  UNL d   1     -53.873   2.398 -18.936  1.00  0.00     0.166 HD
ENDROOT
BRANCH   6  13
ATOM     13  N   UNL d   1     -48.703  -0.076 -16.876  0.00  0.00    -0.314 N 
ATOM     14  C   UNL d   1     -48.684  -1.385 -16.305  0.00  0.00     0.301 C 
ATOM     15  O   UNL d   1     -49.631  -2.202 -16.424  0.00  0.00    -0.258 OA
ATOM     16  HN  UNL d   1     -47.889   0.529 -16.763  1.00  0.00     0.170 HD
BRANCH  14  17
ATOM     17  C   UNL d   1     -47.517  -1.780 -15.557  0.00  0.00    -0.004 C 
ATOM     18  C   UNL d   1     -46.513  -2.120 -14.937  0.00  0.00    -0.066 C 
BRANCH  18  19
ATOM     19  C   UNL d   1     -45.326  -2.517 -14.177  0.00  0.00     0.365 C 
BRANCH  19  20
ATOM     20  N   UNL d   1     -45.072  -3.924 -14.409  0.00  0.00     0.090 N 
ATOM     21  C   UNL d   1     -43.694  -4.180 -14.034  0.00  0.00     0.310 C 
ATOM     22  C   UNL d   1     -45.923  -4.677 -13.510  0.00  0.00     0.310 C 
ENDBRANCH  19  20
ENDBRANCH  18  19
ENDBRANCH  14  17
ENDBRANCH   6  13
BRANCH   1  23
ATOM     23  O   UNL d   1     -50.652   1.302 -15.538  0.00  0.00    -0.354 OA
ATOM     24  C   UNL d   1     -51.485   0.629 -14.621  0.00  0.00     0.210 C 
ENDBRANCH   1  23
BRANCH   7  25
ATOM     25  N   UNL d   1     -50.374  -0.174 -21.762  0.00  0.00    -0.342 N 
ATOM     26  HN  UNL d   1     -49.428   0.188 -21.882  1.00  0.00     0.167 HD
BRANCH  25  27
ATOM     27  C   UNL d   1     -50.766  -1.406 -22.401  0.00  0.00     0.035 A 
ATOM     28  C   UNL d   1     -51.173  -1.465 -23.704  0.00  0.00     0.056 A 
ATOM     29  C   UNL d   1     -51.542  -2.697 -24.214  0.00  0.00     0.074 A 
ATOM     30 CL   UNL d   1     -52.070  -2.833 -25.877  0.00  0.00    -0.081 Cl
ATOM     31  C   UNL d   1     -51.515  -3.853 -23.465  0.00  0.00     0.138 A 
ATOM     32  F   UNL d   1     -51.887  -5.068 -23.984  0.00  0.00    -0.204 F 
ATOM     33  C   UNL d   1     -51.101  -3.784 -22.149  0.00  0.00     0.046 A 
ATOM     34  C   UNL d   1     -50.739  -2.569 -21.654  0.00  0.00     0.032 A 
ENDBRANCH  25  27
ENDBRANCH   7  25
TORSDOF 7
ENDMDL
MODEL 3
REMARK VINA RESULT:      -6.8      1.664      1.947
REMARK  7 active torsions:
REMARK  status: ('A' for Active; 'I' for Inactive)
REMARK    1  A    between atoms: O_2  and  C_3 
REMARK    2  A    between atoms: C_8  and  N_9 
REMARK       I    between atoms: N_9  and  C_11 
REMARK    3  A    between atoms: C_11  and  C_13 
REMARK    4  A    between atoms: C_14  and  C_15 
REMARK    5  A    between atoms: C_15  and  N_16 
REMARK    6  A    between atoms: C_19  and  N_20 
REMARK    7  A    between atoms: N_20  and  C_22 
ROOT
ATOM      1  C   UNL d   1     -52.269   0.879 -19.949  0.00  0.00     0.097 A 
ATOM      2  C   UNL d   1     -53.379   1.294 -20.677  0.00  0.00     0.069 A 
ATOM      3  C   UNL d   1     -53.390   1.186 -22.036  0.00  0.00     0.049 A 
ATOM      4  C   UNL d   1     -52.290   0.659 -22.685  0.00  0.00     0.037 A 
ATOM      5  C   UNL d   1     -51.176   0.239 -21.974  0.00  0.00     0.050 A 
ATOM      6  C   UNL d   1     -51.168   0.352 -20.594  0.00  0.00     0.070 A 
ATOM      7  C   UNL d   1     -52.352   0.582 -24.062  0.00  0.00     0.119 A 
ATOM      8  N   UNL d   1     -53.463   1.015 -24.719  0.00  0.00    -0.338 N 
ATOM      9  HN  UNL d   1     -53.497   0.954 -25.736  1.00  0.00     0.168 HD
ATOM     10  C   UNL d   1     -54.516   1.522 -24.055  0.00  0.00     0.182 A 
ATOM     11  N   UNL d   1     -54.475   1.605 -22.706  0.00  0.00    -0.351 N 
ATOM     12  HN  UNL d   1     -55.271   1.988 -22.197  1.00  0.00     0.166 HD
ENDROOT
BRANCH   6  13
ATOM     13  N   UNL d   1     -50.060  -0.055 -19.794  0.00  0.00    -0.314 N 
ATOM     14  C   UNL d   1     -49.921  -1.404 -19.344  0.00  0.00     0.301 C 
ATOM     15  O   UNL d   1     -50.731  -2.316 -19.642  0.00  0.00    -0.258 OA
ATOM     16  HN  UNL d   1     -49.352   0.632 -19.536  1.00  0.00     0.170 HD
BRANCH  14  17
ATOM     17  C   UNL d   1     -48.793  -1.725 -18.507  0.00  0.00    -0.004 C 
ATOM     18  C   UNL d   1     -47.843  -2.013 -17.785  0.00  0.00    -0.066 C 
BRANCH  18  19
ATOM     19  C   UNL d   1     -46.695  -2.342 -16.938  0.00  0.00     0.365 C 
BRANCH  19  20
ATOM     20  N   UNL d   1     -45.902  -3.359 -17.598  0.00  0.00     0.090 N 
ATOM     21  C   UNL d   1     -44.512  -2.955 -17.496  0.00  0.00     0.310 C 
ATOM     22  C   UNL d   1     -46.060  -4.591 -16.851  0.00  0.00     0.310 C 
ENDBRANCH  19  20
ENDBRANCH  18  19
ENDBRANCH  14  17
ENDBRANCH   6  13
BRANCH   1  23
ATOM     23  O   UNL d   1     -52.271   0.996 -18.571  0.00  0.00    -0.354 OA
ATOM     24  C   UNL d   1     -52.128   2.260 -17.964  0.00  0.00     0.210 C 
ENDBRANCH   1  23
BRANCH   7  25
ATOM     25  N   UNL d   1     -51.250   0.036 -24.819  0.00  0.00    -0.342 N 
ATOM     26  HN  UNL d   1     -50.684   0.644 -25.411  1.00  0.00     0.167 HD
BRANCH  25  27
ATOM     27  C   UNL d   1     -50.954  -1.373 -24.732  0.00  0.00     0.035 A 
ATOM     28  C   UNL d   1     -49.680  -1.864 -24.770  0.00  0.00     0.056 A 
ATOM     29  C   UNL d   1     -49.510  -3.235 -24.695  0.00  0.00     0.074 A 
ATOM     30 CL   UNL d   1     -47.900  -3.921 -24.737  0.00  0.00    -0.081 Cl
ATOM     31  C   UNL d   1     -50.566  -4.113 -24.585  0.00  0.00     0.138 A 
ATOM     32  F   UNL d   1     -50.382  -5.471 -24.514  0.00  0.00    -0.204 F 
ATOM     33  C   UNL d   1     -51.851  -3.607 -24.546  0.00  0.00     0.046 A 
ATOM     34  C   UNL d   1     -52.011  -2.258 -24.621  0.00  0.00     0.032 A 
ENDBRANCH  25  27
ENDBRANCH   7  25
TORSDOF 7
ENDMDL
MODEL 4
REMARK VINA RESULT:      -6.8      3.467      6.034
REMARK  7 active torsions:
REMARK  status: ('A' for Active; 'I' for Inactive)
REMARK    1  A    between atoms: O_2  and  C_3 
REMARK    2  A    between atoms: C_8  and  N_9 
REMARK       I    between atoms: N_9  and  C_11 
REMARK    3  A    between atoms: C_11  and  C_13 
REMARK    4  A    between atoms: C_14  and  C_15 
REMARK    5  A    between atoms: C_15  and  N_16 
REMARK    6  A    between atoms: C_19  and  N_20 
REMARK    7  A    between atoms: N_20  and  C_22 
ROOT
ATOM      1  C   UNL d   1     -49.372  -3.970 -19.302  0.00  0.00     0.097 A 
ATOM      2  C   UNL d   1     -48.849  -5.063 -19.984  0.00  0.00     0.069 A 
ATOM      3  C   UNL d   1     -49.337  -5.408 -21.209  0.00  0.00     0.049 A 
ATOM      4  C   UNL d   1     -50.355  -4.661 -21.769  0.00  0.00     0.037 A 
ATOM      5  C   UNL d   1     -50.887  -3.567 -21.103  0.00  0.00     0.050 A 
ATOM      6  C   UNL d   1     -50.390  -3.221 -19.859  0.00  0.00     0.070 A 
ATOM      7  C   UNL d   1     -50.818  -5.060 -23.007  0.00  0.00     0.119 A 
ATOM      8  N   UNL d   1     -50.272  -6.146 -23.619  0.00  0.00    -0.338 N 
ATOM      9  HN  UNL d   1     -50.623  -6.433 -24.533  1.00  0.00     0.168 HD
ATOM     10  C   UNL d   1     -49.282  -6.850 -23.045  0.00  0.00     0.182 A 
ATOM     11  N   UNL d   1     -48.815  -6.474 -21.834  0.00  0.00    -0.351 N 
ATOM     12  HN  UNL d   1     -48.063  -7.004 -21.393  1.00  0.00     0.166 HD
ENDROOT
BRANCH   6  13
ATOM     13  N   UNL d   1     -50.885  -2.113 -19.111  0.00  0.00    -0.314 N 
ATOM     14  C   UNL d   1     -50.295  -0.816 -19.220  0.00  0.00     0.301 C 
ATOM     15  O   UNL d   1     -49.337  -0.559 -19.991  0.00  0.00    -0.258 OA
ATOM     16  HN  UNL d   1     -51.678  -2.248 -18.484  1.00  0.00     0.170 HD
BRANCH  14  17
ATOM     17  C   UNL d   1     -50.830   0.242 -18.402  0.00  0.00    -0.004 C 
ATOM     18  C   UNL d   1     -51.270   1.156 -17.710  0.00  0.00    -0.066 C 
BRANCH  18  19
ATOM     19  C   UNL d   1     -51.817   2.233 -16.882  0.00  0.00     0.365 C 
BRANCH  19  20
ATOM     20  N   UNL d   1     -51.134   2.233 -15.604  0.00  0.00     0.090 N 
ATOM     21  C   UNL d   1     -51.609   3.385 -14.862  0.00  0.00     0.310 C 
ATOM     22  C   UNL d   1     -51.546   1.043 -14.887  0.00  0.00     0.310 C 
ENDBRANCH  19  20
ENDBRANCH  18  19
ENDBRANCH  14  17
ENDBRANCH   6  13
BRANCH   1  23
ATOM     23  O   UNL d   1     -48.868  -3.633 -18.059  0.00  0.00    -0.354 OA
ATOM     24  C   UNL d   1     -47.533  -3.197 -17.927  0.00  0.00     0.210 C 
ENDBRANCH   1  23
BRANCH   7  25
ATOM     25  N   UNL d   1     -51.874  -4.331 -23.669  0.00  0.00    -0.342 N 
ATOM     26  HN  UNL d   1     -52.812  -4.727 -23.727  1.00  0.00     0.167 HD
BRANCH  25  27
ATOM     27  C   UNL d   1     -51.595  -3.040 -24.247  0.00  0.00     0.035 A 
ATOM     28  C   UNL d   1     -52.517  -2.033 -24.287  0.00  0.00     0.056 A 
ATOM     29  C   UNL d   1     -52.149  -0.838 -24.879  0.00  0.00     0.074 A 
ATOM     30 CL   UNL d   1     -53.289   0.488 -24.957  0.00  0.00    -0.081 Cl
ATOM     31  C   UNL d   1     -50.901  -0.628 -25.423  0.00  0.00     0.138 A 
ATOM     32  F   UNL d   1     -50.551   0.562 -26.011  0.00  0.00    -0.204 F 
ATOM     33  C   UNL d   1     -49.974  -1.652 -25.377  0.00  0.00     0.046 A 
ATOM     34  C   UNL d   1     -50.343  -2.824 -24.793  0.00  0.00     0.032 A 
ENDBRANCH  25  27
ENDBRANCH   7  25
TORSDOF 7
ENDMDL
MODEL 5
REMARK VINA RESULT:      -6.8      4.306      8.134
REMARK  7 active torsions:
REMARK  status: ('A' for Active; 'I' for Inactive)
REMARK    1  A    between atoms: O_2  and  C_3 
REMARK    2  A    between atoms: C_8  and  N_9 
REMARK       I    between atoms: N_9  and  C_11 
REMARK    3  A    between atoms: C_11  and  C_13 
REMARK    4  A    between atoms: C_14  and  C_15 
REMARK    5  A    between atoms: C_15  and  N_16 
REMARK    6  A    between atoms: C_19  and  N_20 
REMARK    7  A    between atoms: N_20  and  C_22 
ROOT
ATOM      1  C   UNL d   1     -50.693   2.884 -14.243  0.00  0.00     0.097 A 
ATOM      2  C   UNL d   1     -49.704   1.993 -14.644  0.00  0.00     0.069 A 
ATOM      3  C   UNL d   1     -49.804   1.349 -15.841  0.00  0.00     0.049 A 
ATOM      4  C   UNL d   1     -50.895   1.590 -16.655  0.00  0.00     0.037 A 
ATOM      5  C   UNL d   1     -51.888   2.477 -16.270  0.00  0.00     0.050 A 
ATOM      6  C   UNL d   1     -51.785   3.129 -15.053  0.00  0.00     0.070 A 
ATOM      7  C   UNL d   1     -50.949   0.903 -17.851  0.00  0.00     0.119 A 
ATOM      8  N   UNL d   1     -49.955   0.034 -18.183  0.00  0.00    -0.338 N 
ATOM      9  HN  UNL d   1     -50.007  -0.468 -19.069  1.00  0.00     0.168 HD
ATOM     10  C   UNL d   1     -48.907  -0.176 -17.367  0.00  0.00     0.182 A 
ATOM     11  N   UNL d   1     -48.836   0.488 -16.192  0.00  0.00    -0.351 N 
ATOM     12  HN  UNL d   1     -48.043   0.333 -15.569  1.00  0.00     0.166 HD
ENDROOT
BRANCH   6  13
ATOM     13  N   UNL d   1     -52.765   4.052 -14.586  0.00  0.00    -0.314 N 
ATOM     14  C   UNL d   1     -52.799   5.402 -15.053  0.00  0.00     0.301 C 
ATOM     15  O   UNL d   1     -52.004   5.853 -15.915  0.00  0.00    -0.258 OA
ATOM     16  HN  UNL d   1     -53.457   3.743 -13.904  1.00  0.00     0.170 HD
BRANCH  14  17
ATOM     17  C   UNL d   1     -53.799   6.283 -14.504  0.00  0.00    -0.004 C 
ATOM     18  C   UNL d   1     -54.643   7.028 -14.017  0.00  0.00    -0.066 C 
BRANCH  18  19
ATOM     19  C   UNL d   1     -55.657   7.926 -13.458  0.00  0.00     0.365 C 
BRANCH  19  20
ATOM     20  N   UNL d   1     -56.801   7.950 -14.346  0.00  0.00     0.090 N 
ATOM     21  C   UNL d   1     -57.987   7.803 -13.523  0.00  0.00     0.310 C 
ATOM     22  C   UNL d   1     -56.850   9.260 -14.962  0.00  0.00     0.310 C 
ENDBRANCH  19  20
ENDBRANCH  18  19
ENDBRANCH  14  17
ENDBRANCH   6  13
BRANCH   1  23
ATOM     23  O   UNL d   1     -50.579   3.530 -13.025  0.00  0.00    -0.354 OA
ATOM     24  C   UNL d   1     -49.659   4.587 -12.863  0.00  0.00     0.210 C 
ENDBRANCH   1  23
BRANCH   7  25
ATOM     25  N   UNL d   1     -52.050   1.102 -18.764  0.00  0.00    -0.342 N 
ATOM     26  HN  UNL d   1     -52.844   1.681 -18.492  1.00  0.00     0.167 HD
BRANCH  25  27
ATOM     27  C   UNL d   1     -52.019   0.477 -20.064  0.00  0.00     0.035 A 
ATOM     28  C   UNL d   1     -52.015   1.192 -21.228  0.00  0.00     0.056 A 
ATOM     29  C   UNL d   1     -52.000   0.492 -22.421  0.00  0.00     0.074 A 
ATOM     30 CL   UNL d   1     -51.993   1.355 -23.943  0.00  0.00    -0.081 Cl
ATOM     31  C   UNL d   1     -51.990  -0.885 -22.477  0.00  0.00     0.138 A 
ATOM     32  F   UNL d   1     -51.979  -1.567 -23.669  0.00  0.00    -0.204 F 
ATOM     33  C   UNL d   1     -51.994  -1.600 -21.295  0.00  0.00     0.046 A 
ATOM     34  C   UNL d   1     -52.008  -0.905 -20.126  0.00  0.00     0.032 A 
ENDBRANCH  25  27
ENDBRANCH   7  25
TORSDOF 7
ENDMDL
MODEL 6
REMARK VINA RESULT:      -6.7      4.344      7.225
REMARK  7 active torsions:
REMARK  status: ('A' for Active; 'I' for Inactive)
REMARK    1  A    between atoms: O_2  and  C_3 
REMARK    2  A    between atoms: C_8  and  N_9 
REMARK       I    between atoms: N_9  and  C_11 
REMARK    3  A    between atoms: C_11  and  C_13 
REMARK    4  A    between atoms: C_14  and  C_15 
REMARK    5  A    between atoms: C_15  and  N_16 
REMARK    6  A    between atoms: C_19  and  N_20 
REMARK    7  A    between atoms: N_20  and  C_22 
ROOT
ATOM      1  C   UNL d   1     -51.412   0.719 -20.018  0.00  0.00     0.097 A 
ATOM      2  C   UNL d   1     -52.066   1.731 -19.322  0.00  0.00     0.069 A 
ATOM      3  C   UNL d   1     -51.890   1.865 -17.978  0.00  0.00     0.049 A 
ATOM      4  C   UNL d   1     -51.055   0.989 -17.310  0.00  0.00     0.037 A 
ATOM      5  C   UNL d   1     -50.395  -0.024 -17.989  0.00  0.00     0.050 A 
ATOM      6  C   UNL d   1     -50.577  -0.158 -19.355  0.00  0.00     0.070 A 
ATOM      7  C   UNL d   1     -50.922   1.165 -15.947  0.00  0.00     0.119 A 
ATOM      8  N   UNL d   1     -51.597   2.167 -15.321  0.00  0.00    -0.338 N 
ATOM      9  HN  UNL d   1     -51.491   2.287 -14.314  1.00  0.00     0.168 HD
ATOM     10  C   UNL d   1     -52.401   3.002 -16.002  0.00  0.00     0.182 A 
ATOM     11  N   UNL d   1     -52.544   2.846 -17.337  0.00  0.00    -0.351 N 
ATOM     12  HN  UNL d   1     -53.152   3.477 -17.859  1.00  0.00     0.166 HD
ENDROOT
BRANCH   6  13
ATOM     13  N   UNL d   1     -49.936  -1.174 -20.123  0.00  0.00    -0.314 N 
ATOM     14  C   UNL d   1     -50.523  -2.467 -20.285  0.00  0.00     0.301 C 
ATOM     15  O   UNL d   1     -51.638  -2.782 -19.800  0.00  0.00    -0.258 OA
ATOM     16  HN  UNL d   1     -49.039  -0.975 -20.565  1.00  0.00     0.170 HD
BRANCH  14  17
ATOM     17  C   UNL d   1     -49.794  -3.450 -21.045  0.00  0.00    -0.004 C 
ATOM     18  C   UNL d   1     -49.190  -4.295 -21.700  0.00  0.00    -0.066 C 
BRANCH  18  19
ATOM     19  C   UNL d   1     -48.449  -5.291 -22.476  0.00  0.00     0.365 C 
BRANCH  19  20
ATOM     20  N   UNL d   1     -49.181  -6.541 -22.453  0.00  0.00     0.090 N 
ATOM     21  C   UNL d   1     -48.746  -7.316 -23.600  0.00  0.00     0.310 C 
ATOM     22  C   UNL d   1     -48.786  -7.259 -21.258  0.00  0.00     0.310 C 
ENDBRANCH  19  20
ENDBRANCH  18  19
ENDBRANCH  14  17
ENDBRANCH   6  13
BRANCH   1  23
ATOM     23  O   UNL d   1     -51.601   0.595 -21.382  0.00  0.00    -0.354 OA
ATOM     24  C   UNL d   1     -52.844   0.922 -21.962  0.00  0.00     0.210 C 
ENDBRANCH   1  23
BRANCH   7  25
ATOM     25  N   UNL d   1     -50.063   0.300 -15.174  0.00  0.00    -0.342 N 
ATOM     26  HN  UNL d   1     -49.059   0.476 -15.136  1.00  0.00     0.167 HD
BRANCH  25  27
ATOM     27  C   UNL d   1     -50.632  -0.814 -14.457  0.00  0.00     0.035 A 
ATOM     28  C   UNL d   1     -51.409  -0.657 -13.344  0.00  0.00     0.056 A 
ATOM     29  C   UNL d   1     -51.892  -1.795 -12.723  0.00  0.00     0.074 A 
ATOM     30 CL   UNL d   1     -52.893  -1.655 -11.294  0.00  0.00    -0.081 Cl
ATOM     31  C   UNL d   1     -51.623  -3.067 -13.182  0.00  0.00     0.138 A 
ATOM     32  F   UNL d   1     -52.107  -4.187 -12.553  0.00  0.00    -0.204 F 
ATOM     33  C   UNL d   1     -50.838  -3.216 -14.309  0.00  0.00     0.046 A 
ATOM     34  C   UNL d   1     -50.366  -2.092 -14.914  0.00  0.00     0.032 A 
ENDBRANCH  25  27
ENDBRANCH   7  25
TORSDOF 7
ENDMDL
MODEL 7
REMARK VINA RESULT:      -6.6      3.302      6.805
REMARK  7 active torsions:
REMARK  status: ('A' for Active; 'I' for Inactive)
REMARK    1  A    between atoms: O_2  and  C_3 
REMARK    2  A    between atoms: C_8  and  N_9 
REMARK       I    between atoms: N_9  and  C_11 
REMARK    3  A    between atoms: C_11  and  C_13 
REMARK    4  A    between atoms: C_14  and  C_15 
REMARK    5  A    between atoms: C_15  and  N_16 
REMARK    6  A    between atoms: C_19  and  N_20 
REMARK    7  A    between atoms: N_20  and  C_22 
ROOT
ATOM      1  C   UNL d   1     -50.215  -0.675 -15.011  0.00  0.00     0.097 A 
ATOM      2  C   UNL d   1     -49.753  -1.937 -15.369  0.00  0.00     0.069 A 
ATOM      3  C   UNL d   1     -49.271  -2.162 -16.624  0.00  0.00     0.049 A 
ATOM      4  C   UNL d   1     -49.243  -1.126 -17.538  0.00  0.00     0.037 A 
ATOM      5  C   UNL d   1     -49.698   0.138 -17.196  0.00  0.00     0.050 A 
ATOM      6  C   UNL d   1     -50.188   0.363 -15.921  0.00  0.00     0.070 A 
ATOM      7  C   UNL d   1     -48.755  -1.413 -18.797  0.00  0.00     0.119 A 
ATOM      8  N   UNL d   1     -48.327  -2.672 -19.090  0.00  0.00    -0.338 N 
ATOM      9  HN  UNL d   1     -47.969  -2.872 -20.024  1.00  0.00     0.168 HD
ATOM     10  C   UNL d   1     -48.368  -3.656 -18.176  0.00  0.00     0.182 A 
ATOM     11  N   UNL d   1     -48.843  -3.395 -16.938  0.00  0.00    -0.351 N 
ATOM     12  HN  UNL d   1     -48.876  -4.138 -16.240  1.00  0.00     0.166 HD
ENDROOT
BRANCH   6  13
ATOM     13  N   UNL d   1     -50.676   1.633 -15.495  0.00  0.00    -0.314 N 
ATOM     14  C   UNL d   1     -51.679   2.333 -16.235  0.00  0.00     0.301 C 
ATOM     15  O   UNL d   1     -52.214   1.873 -17.274  0.00  0.00    -0.258 OA
ATOM     16  HN  UNL d   1     -50.301   2.052 -14.644  1.00  0.00     0.170 HD
BRANCH  14  17
ATOM     17  C   UNL d   1     -52.091   3.628 -15.758  0.00  0.00    -0.004 C 
ATOM     18  C   UNL d   1     -52.425   4.733 -15.339  0.00  0.00    -0.066 C 
BRANCH  18  19
ATOM     19  C   UNL d   1     -52.842   6.051 -14.857  0.00  0.00     0.365 C 
BRANCH  19  20
ATOM     20  N   UNL d   1     -53.801   5.876 -13.785  0.00  0.00     0.090 N 
ATOM     21  C   UNL d   1     -53.075   5.988 -12.534  0.00  0.00     0.310 C 
ATOM     22  C   UNL d   1     -54.738   6.979 -13.852  0.00  0.00     0.310 C 
ENDBRANCH  19  20
ENDBRANCH  18  19
ENDBRANCH  14  17
ENDBRANCH   6  13
BRANCH   1  23
ATOM     23  O   UNL d   1     -50.702  -0.461 -13.735  0.00  0.00    -0.354 OA
ATOM     24  C   UNL d   1     -51.616  -1.368 -13.161  0.00  0.00     0.210 C 
ENDBRANCH   1  23
BRANCH   7  25
ATOM     25  N   UNL d   1     -48.682  -0.387 -19.810  0.00  0.00    -0.342 N 
ATOM     26  HN  UNL d   1     -47.829   0.162 -19.923  1.00  0.00     0.167 HD
BRANCH  25  27
ATOM     27  C   UNL d   1     -49.821  -0.141 -20.659  0.00  0.00     0.035 A 
ATOM     28  C   UNL d   1     -50.115  -0.918 -21.744  0.00  0.00     0.056 A 
ATOM     29  C   UNL d   1     -51.224  -0.585 -22.501  0.00  0.00     0.074 A 
ATOM     30 CL   UNL d   1     -51.650  -1.545 -23.901  0.00  0.00    -0.081 Cl
ATOM     31  C   UNL d   1     -52.034   0.490 -22.203  0.00  0.00     0.138 A 
ATOM     32  F   UNL d   1     -53.130   0.810 -22.966  0.00  0.00    -0.204 F 
ATOM     33  C   UNL d   1     -51.730   1.269 -21.104  0.00  0.00     0.046 A 
ATOM     34  C   UNL d   1     -50.638   0.935 -20.364  0.00  0.00     0.032 A 
ENDBRANCH  25  27
ENDBRANCH   7  25
TORSDOF 7
ENDMDL
MODEL 8
REMARK VINA RESULT:      -6.6      3.727      5.244
REMARK  7 active torsions:
REMARK  status: ('A' for Active; 'I' for Inactive)
REMARK    1  A    between atoms: O_2  and  C_3 
REMARK    2  A    between atoms: C_8  and  N_9 
REMARK       I    between atoms: N_9  and  C_11 
REMARK    3  A    between atoms: C_11  and  C_13 
REMARK    4  A    between atoms: C_14  and  C_15 
REMARK    5  A    between atoms: C_15  and  N_16 
REMARK    6  A    between atoms: C_19  and  N_20 
REMARK    7  A    between atoms: N_20  and  C_22 
ROOT
ATOM      1  C   UNL d   1     -52.160   0.569 -22.800  0.00  0.00     0.097 A 
ATOM      2  C   UNL d   1     -52.771   0.422 -24.041  0.00  0.00     0.069 A 
ATOM      3  C   UNL d   1     -52.367  -0.561 -24.894  0.00  0.00     0.049 A 
ATOM      4  C   UNL d   1     -51.347  -1.413 -24.516  0.00  0.00     0.037 A 
ATOM      5  C   UNL d   1     -50.728  -1.281 -23.282  0.00  0.00     0.050 A 
ATOM      6  C   UNL d   1     -51.140  -0.280 -22.418  0.00  0.00     0.070 A 
ATOM      7  C   UNL d   1     -50.971  -2.383 -25.423  0.00  0.00     0.119 A 
ATOM      8  N   UNL d   1     -51.600  -2.470 -26.627  0.00  0.00    -0.338 N 
ATOM      9  HN  UNL d   1     -51.314  -3.190 -27.289  1.00  0.00     0.168 HD
ATOM     10  C   UNL d   1     -52.590  -1.624 -26.962  0.00  0.00     0.182 A 
ATOM     11  N   UNL d   1     -52.972  -0.667 -26.087  0.00  0.00    -0.351 N 
ATOM     12  HN  UNL d   1     -53.723  -0.023 -26.335  1.00  0.00     0.166 HD
ENDROOT
BRANCH   6  13
ATOM     13  N   UNL d   1     -50.553  -0.079 -21.135  0.00  0.00    -0.314 N 
ATOM     14  C   UNL d   1     -51.105  -0.679 -19.961  0.00  0.00     0.301 C 
ATOM     15  O   UNL d   1     -52.106  -1.437 -19.980  0.00  0.00    -0.258 OA
ATOM     16  HN  UNL d   1     -49.722   0.507 -21.052  1.00  0.00     0.170 HD
BRANCH  14  17
ATOM     17  C   UNL d   1     -50.474  -0.395 -18.697  0.00  0.00    -0.004 C 
ATOM     18  C   UNL d   1     -49.954  -0.142 -17.614  0.00  0.00    -0.066 C 
BRANCH  18  19
ATOM     19  C   UNL d   1     -49.315   0.143 -16.328  0.00  0.00     0.365 C 
BRANCH  19  20
ATOM     20  N   UNL d   1     -49.890   1.353 -15.777  0.00  0.00     0.090 N 
ATOM     21  C   UNL d   1     -51.205   1.012 -15.267  0.00  0.00     0.310 C 
ATOM     22  C   UNL d   1     -49.070   1.755 -14.652  0.00  0.00     0.310 C 
ENDBRANCH  19  20
ENDBRANCH  18  19
ENDBRANCH  14  17
ENDBRANCH   6  13
BRANCH   1  23
ATOM     23  O   UNL d   1     -52.580   1.572 -21.945  0.00  0.00    -0.354 OA
ATOM     24  C   UNL d   1     -53.869   1.527 -21.375  0.00  0.00     0.210 C 
ENDBRANCH   1  23
BRANCH   7  25
ATOM     25  N   UNL d   1     -49.920  -3.320 -25.105  0.00  0.00    -0.342 N 
ATOM     26  HN  UNL d   1     -50.088  -4.073 -24.438  1.00  0.00     0.167 HD
BRANCH  25  27
ATOM     27  C   UNL d   1     -48.629  -3.185 -25.736  0.00  0.00     0.035 A 
ATOM     28  C   UNL d   1     -48.309  -3.815 -26.905  0.00  0.00     0.056 A 
ATOM     29  C   UNL d   1     -47.037  -3.629 -27.416  0.00  0.00     0.074 A 
ATOM     30 CL   UNL d   1     -46.570  -4.410 -28.910  0.00  0.00    -0.081 Cl
ATOM     31  C   UNL d   1     -46.092  -2.839 -26.796  0.00  0.00     0.138 A 
ATOM     32  F   UNL d   1     -44.832  -2.666 -27.313  0.00  0.00    -0.204 F 
ATOM     33  C   UNL d   1     -46.426  -2.205 -25.615  0.00  0.00     0.046 A 
ATOM     34  C   UNL d   1     -47.679  -2.393 -25.118  0.00  0.00     0.032 A 
ENDBRANCH  25  27
ENDBRANCH   7  25
TORSDOF 7
ENDMDL
MODEL 9
REMARK VINA RESULT:      -6.6      2.987      3.921
REMARK  7 active torsions:
REMARK  status: ('A' for Active; 'I' for Inactive)
REMARK    1  A    between atoms: O_2  and  C_3 
REMARK    2  A    between atoms: C_8  and  N_9 
REMARK       I    between atoms: N_9  and  C_11 
REMARK    3  A    between atoms: C_11  and  C_13 
REMARK    4  A    between atoms: C_14  and  C_15 
REMARK    5  A    between atoms: C_15  and  N_16 
REMARK    6  A    between atoms: C_19  and  N_20 
REMARK    7  A    between atoms: N_20  and  C_22 
ROOT
ATOM      1  C   UNL d   1     -51.723   0.460 -21.356  0.00  0.00     0.097 A 
ATOM      2  C   UNL d   1     -51.868   0.956 -22.648  0.00  0.00     0.069 A 
ATOM      3  C   UNL d   1     -51.967   0.101 -23.705  0.00  0.00     0.049 A 
ATOM      4  C   UNL d   1     -51.925  -1.262 -23.483  0.00  0.00     0.037 A 
ATOM      5  C   UNL d   1     -51.783  -1.772 -22.202  0.00  0.00     0.050 A 
ATOM      6  C   UNL d   1     -51.681  -0.901 -21.131  0.00  0.00     0.070 A 
ATOM      7  C   UNL d   1     -52.020  -2.081 -24.591  0.00  0.00     0.119 A 
ATOM      8  N   UNL d   1     -52.149  -1.535 -25.831  0.00  0.00    -0.338 N 
ATOM      9  HN  UNL d   1     -52.218  -2.149 -26.642  1.00  0.00     0.168 HD
ATOM     10  C   UNL d   1     -52.188  -0.203 -26.010  0.00  0.00     0.182 A 
ATOM     11  N   UNL d   1     -52.096   0.615 -24.938  0.00  0.00    -0.351 N 
ATOM     12  HN  UNL d   1     -52.125   1.626 -25.067  1.00  0.00     0.166 HD
ENDROOT
BRANCH   6  13
ATOM     13  N   UNL d   1     -51.530  -1.348 -19.785  0.00  0.00    -0.314 N 
ATOM     14  C   UNL d   1     -50.248  -1.684 -19.251  0.00  0.00     0.301 C 
ATOM     15  O   UNL d   1     -49.181  -1.581 -19.906  0.00  0.00    -0.258 OA
ATOM     16  HN  UNL d   1     -52.354  -1.430 -19.191  1.00  0.00     0.170 HD
BRANCH  14  17
ATOM     17  C   UNL d   1     -50.185  -2.162 -17.894  0.00  0.00    -0.004 C 
ATOM     18  C   UNL d   1     -50.119  -2.554 -16.732  0.00  0.00    -0.066 C 
BRANCH  18  19
ATOM     19  C   UNL d   1     -50.058  -3.039 -15.351  0.00  0.00     0.365 C 
BRANCH  19  20
ATOM     20  N   UNL d   1     -51.090  -2.378 -14.578  0.00  0.00     0.090 N 
ATOM     21  C   UNL d   1     -51.271  -3.143 -13.359  0.00  0.00     0.310 C 
ATOM     22  C   UNL d   1     -50.589  -1.069 -14.208  0.00  0.00     0.310 C 
ENDBRANCH  19  20
ENDBRANCH  18  19
ENDBRANCH  14  17
ENDBRANCH   6  13
BRANCH   1  23
ATOM     23  O   UNL d   1     -51.623   1.339 -20.293  0.00  0.00    -0.354 OA
ATOM     24  C   UNL d   1     -52.745   2.085 -19.878  0.00  0.00     0.210 C 
ENDBRANCH   1  23
BRANCH   7  25
ATOM     25  N   UNL d   1     -51.993  -3.517 -24.449  0.00  0.00    -0.342 N 
ATOM     26  HN  UNL d   1     -52.866  -4.043 -24.400  1.00  0.00     0.167 HD
BRANCH  25  27
ATOM     27  C   UNL d   1     -50.727  -4.203 -24.376  0.00  0.00     0.035 A 
ATOM     28  C   UNL d   1     -50.523  -5.296 -23.583  0.00  0.00     0.056 A 
ATOM     29  C   UNL d   1     -49.264  -5.869 -23.577  0.00  0.00     0.074 A 
ATOM     30 CL   UNL d   1     -48.945  -7.272 -22.580  0.00  0.00    -0.081 Cl
ATOM     31  C   UNL d   1     -48.219  -5.382 -24.333  0.00  0.00     0.138 A 
ATOM     32  F   UNL d   1     -46.974  -5.959 -24.314  0.00  0.00    -0.204 F 
ATOM     33  C   UNL d   1     -48.435  -4.277 -25.133  0.00  0.00     0.046 A 
ATOM     34  C   UNL d   1     -49.676  -3.719 -25.134  0.00  0.00     0.032 A 
ENDBRANCH  25  27
ENDBRANCH   7  25
TORSDOF 7
ENDMDL
