MODEL 1
REMARK VINA RESULT:      -7.8      0.000      0.000
REMARK  9 active torsions:
REMARK  status: ('A' for Active; 'I' for Inactive)
REMARK    1  A    between atoms: C_2  and  C_3 
REMARK       I    between atoms: C_3  and  N_5 
REMARK    2  A    between atoms: N_5  and  C_7 
REMARK    3  A    between atoms: C_8  and  O_9 
REMARK    4  A    between atoms: O_9  and  C_10 
REMARK    5  A    between atoms: C_10  and  C_11 
REMARK    6  A    between atoms: C_11  and  C_12 
REMARK    7  A    between atoms: C_12  and  N_13 
REMARK    8  A    between atoms: C_26  and  N_27 
REMARK    9  A    between atoms: N_27  and  C_29 
ROOT
ATOM      1  C   UNL d   1     -51.214   1.070 -19.363  0.00  0.00     0.069 A 
ATOM      2  C   UNL d   1     -50.098   0.349 -19.733  0.00  0.00     0.097 A 
ATOM      3  C   UNL d   1     -49.246  -0.143 -18.774  0.00  0.00     0.069 A 
ATOM      4  C   UNL d   1     -49.485   0.071 -17.449  0.00  0.00     0.049 A 
ATOM      5  N   UNL d   1     -48.614  -0.435 -16.563  0.00  0.00    -0.351 N 
ATOM      6  HN  UNL d   1     -47.797  -0.965 -16.866  1.00  0.00     0.166 HD
ATOM      7  C   UNL d   1     -48.858  -0.218 -15.260  0.00  0.00     0.182 A 
ATOM      8  N   UNL d   1     -49.918   0.471 -14.811  0.00  0.00    -0.338 N 
ATOM      9  HN  UNL d   1     -50.065   0.612 -13.812  1.00  0.00     0.168 HD
ATOM     10  C   UNL d   1     -50.779   0.971 -15.711  0.00  0.00     0.119 A 
ATOM     11  C   UNL d   1     -50.608   0.798 -17.077  0.00  0.00     0.037 A 
ATOM     12  C   UNL d   1     -51.488   1.307 -18.009  0.00  0.00     0.050 A 
ENDROOT
BRANCH   2  13
ATOM     13  O   UNL d   1     -49.774   0.083 -21.068  0.00  0.00    -0.349 OA
BRANCH  13  14
ATOM     14  C   UNL d   1     -49.776  -1.242 -21.579  0.00  0.00     0.177 C 
BRANCH  14  15
ATOM     15  C   UNL d   1     -50.989  -1.433 -22.444  0.00  0.00     0.057 C 
BRANCH  15  16
ATOM     16  C   UNL d   1     -51.276  -2.910 -22.563  0.00  0.00     0.274 C 
BRANCH  16  17
ATOM     17  N   UNL d   1     -51.886  -3.280 -23.813  0.00  0.00     0.092 N 
ATOM     18  C   UNL d   1     -52.009  -2.163 -24.723  0.00  0.00     0.298 C 
ATOM     19  C   UNL d   1     -51.812  -2.640 -26.168  0.00  0.00     0.198 C 
ATOM     20  O   UNL d   1     -50.547  -3.160 -26.373  0.00  0.00    -0.388 OA
ATOM     21  C   UNL d   1     -50.017  -3.765 -25.226  0.00  0.00     0.198 C 
ATOM     22  C   UNL d   1     -51.182  -4.338 -24.462  0.00  0.00     0.298 C 
ENDBRANCH  16  17
ENDBRANCH  15  16
ENDBRANCH  14  15
ENDBRANCH  13  14
ENDBRANCH   2  13
BRANCH   1  23
ATOM     23  N   UNL d   1     -52.067   1.558 -20.394  0.00  0.00    -0.321 N 
ATOM     24  C   UNL d   1     -53.242   0.907 -20.843  0.00  0.00     0.245 C 
ATOM     25  O   UNL d   1     -53.588  -0.177 -20.302  0.00  0.00    -0.268 OA
ATOM     26  HN  UNL d   1     -51.815   2.439 -20.840  1.00  0.00     0.169 HD
BRANCH  24  27
ATOM     27  C   UNL d   1     -54.006   1.525 -21.921  0.00  0.00     0.064 C 
ATOM     28  C   UNL d   1     -53.780   1.200 -23.184  0.00  0.00     0.017 C 
ENDBRANCH  24  27
ENDBRANCH   1  23
BRANCH  10  29
ATOM     29  N   UNL d   1     -51.900   1.704 -15.229  0.00  0.00    -0.342 N 
ATOM     30  HN  UNL d   1     -52.812   1.256 -15.142  1.00  0.00     0.167 HD
BRANCH  29  31
ATOM     31  C   UNL d   1     -51.732   3.079 -14.866  0.00  0.00     0.035 A 
ATOM     32  C   UNL d   1     -50.936   3.321 -13.750  0.00  0.00     0.056 A 
ATOM     33  C   UNL d   1     -50.736   4.631 -13.351  0.00  0.00     0.074 A 
ATOM     34 CL   UNL d   1     -49.738   5.023 -11.944  0.00  0.00    -0.081 Cl
ATOM     35  C   UNL d   1     -51.330   5.663 -14.068  0.00  0.00     0.138 A 
ATOM     36  F   UNL d   1     -51.110   6.931 -13.647  0.00  0.00    -0.204 F 
ATOM     37  C   UNL d   1     -52.107   5.387 -15.158  0.00  0.00     0.046 A 
ATOM     38  C   UNL d   1     -52.319   4.082 -15.575  0.00  0.00     0.032 A 
ENDBRANCH  29  31
ENDBRANCH  10  29
TORSDOF 9
ENDMDL
MODEL 2
REMARK VINA RESULT:      -7.8      4.894      9.539
REMARK  9 active torsions:
REMARK  status: ('A' for Active; 'I' for Inactive)
REMARK    1  A    between atoms: C_2  and  C_3 
REMARK       I    between atoms: C_3  and  N_5 
REMARK    2  A    between atoms: N_5  and  C_7 
REMARK    3  A    between atoms: C_8  and  O_9 
REMARK    4  A    between atoms: O_9  and  C_10 
REMARK    5  A    between atoms: C_10  and  C_11 
REMARK    6  A    between atoms: C_11  and  C_12 
REMARK    7  A    between atoms: C_12  and  N_13 
REMARK    8  A    between atoms: C_26  and  N_27 
REMARK    9  A    between atoms: N_27  and  C_29 
ROOT
ATOM      1  C   UNL d   1     -49.764   0.228 -17.800  0.00  0.00     0.069 A 
ATOM      2  C   UNL d   1     -50.680   0.908 -17.027  0.00  0.00     0.097 A 
ATOM      3  C   UNL d   1     -51.807   1.443 -17.605  0.00  0.00     0.069 A 
ATOM      4  C   UNL d   1     -52.036   1.313 -18.942  0.00  0.00     0.049 A 
ATOM      5  N   UNL d   1     -53.154   1.859 -19.444  0.00  0.00    -0.351 N 
ATOM      6  HN  UNL d   1     -53.815   2.357 -18.848  1.00  0.00     0.166 HD
ATOM      7  C   UNL d   1     -53.372   1.725 -20.763  0.00  0.00     0.182 A 
ATOM      8  N   UNL d   1     -52.534   1.079 -21.588  0.00  0.00    -0.338 N 
ATOM      9  HN  UNL d   1     -52.738   1.002 -22.585  1.00  0.00     0.168 HD
ATOM     10  C   UNL d   1     -51.420   0.539 -21.069  0.00  0.00     0.119 A 
ATOM     11  C   UNL d   1     -51.112   0.628 -19.720  0.00  0.00     0.037 A 
ATOM     12  C   UNL d   1     -49.971   0.076 -19.177  0.00  0.00     0.050 A 
ENDROOT
BRANCH   2  13
ATOM     13  O   UNL d   1     -50.525   1.092 -15.649  0.00  0.00    -0.349 OA
BRANCH  13  14
ATOM     14  C   UNL d   1     -51.393   0.464 -14.717  0.00  0.00     0.177 C 
BRANCH  14  15
ATOM     15  C   UNL d   1     -50.585  -0.424 -13.815  0.00  0.00     0.057 C 
BRANCH  15  16
ATOM     16  C   UNL d   1     -51.519  -1.363 -13.090  0.00  0.00     0.274 C 
BRANCH  16  17
ATOM     17  N   UNL d   1     -51.014  -2.707 -12.979  0.00  0.00     0.092 N 
ATOM     18  C   UNL d   1     -50.293  -2.928 -11.744  0.00  0.00     0.298 C 
ATOM     19  C   UNL d   1     -50.528  -4.362 -11.251  0.00  0.00     0.198 C 
ATOM     20  O   UNL d   1     -51.860  -4.598 -10.962  0.00  0.00    -0.388 OA
ATOM     21  C   UNL d   1     -52.730  -3.850 -11.766  0.00  0.00     0.198 C 
ATOM     22  C   UNL d   1     -52.050  -3.681 -13.099  0.00  0.00     0.298 C 
ENDBRANCH  16  17
ENDBRANCH  15  16
ENDBRANCH  14  15
ENDBRANCH  13  14
ENDBRANCH   2  13
BRANCH   1  23
ATOM     23  N   UNL d   1     -48.613  -0.310 -17.154  0.00  0.00    -0.321 N 
ATOM     24  C   UNL d   1     -48.538  -1.605 -16.586  0.00  0.00     0.245 C 
ATOM     25  O   UNL d   1     -49.543  -2.362 -16.651  0.00  0.00    -0.268 OA
ATOM     26  HN  UNL d   1     -47.783   0.280 -17.098  1.00  0.00     0.169 HD
BRANCH  24  27
ATOM     27  C   UNL d   1     -47.292  -2.008 -15.944  0.00  0.00     0.064 C 
ATOM     28  C   UNL d   1     -46.223  -2.300 -16.666  0.00  0.00     0.017 C 
ENDBRANCH  24  27
ENDBRANCH   1  23
BRANCH  10  29
ATOM     29  N   UNL d   1     -50.534  -0.142 -21.951  0.00  0.00    -0.342 N 
ATOM     30  HN  UNL d   1     -49.650   0.286 -22.227  1.00  0.00     0.167 HD
BRANCH  29  31
ATOM     31  C   UNL d   1     -50.898  -1.435 -22.446  0.00  0.00     0.035 A 
ATOM     32  C   UNL d   1     -50.460  -2.520 -21.693  0.00  0.00     0.056 A 
ATOM     33  C   UNL d   1     -50.783  -3.797 -22.121  0.00  0.00     0.074 A 
ATOM     34 CL   UNL d   1     -50.264  -5.228 -21.221  0.00  0.00    -0.081 Cl
ATOM     35  C   UNL d   1     -51.528  -3.961 -23.282  0.00  0.00     0.138 A 
ATOM     36  F   UNL d   1     -51.823  -5.224 -23.669  0.00  0.00    -0.204 F 
ATOM     37  C   UNL d   1     -51.940  -2.870 -23.997  0.00  0.00     0.046 A 
ATOM     38  C   UNL d   1     -51.628  -1.584 -23.585  0.00  0.00     0.032 A 
ENDBRANCH  29  31
ENDBRANCH  10  29
TORSDOF 9
ENDMDL
MODEL 3
REMARK VINA RESULT:      -7.7      4.950      9.688
REMARK  9 active torsions:
REMARK  status: ('A' for Active; 'I' for Inactive)
REMARK    1  A    between atoms: C_2  and  C_3 
REMARK       I    between atoms: C_3  and  N_5 
REMARK    2  A    between atoms: N_5  and  C_7 
REMARK    3  A    between atoms: C_8  and  O_9 
REMARK    4  A    between atoms: O_9  and  C_10 
REMARK    5  A    between atoms: C_10  and  C_11 
REMARK    6  A    between atoms: C_11  and  C_12 
REMARK    7  A    between atoms: C_12  and  N_13 
REMARK    8  A    between atoms: C_26  and  N_27 
REMARK    9  A    between atoms: N_27  and  C_29 
ROOT
ATOM      1  C   UNL d   1     -49.876   0.418 -17.522  0.00  0.00     0.069 A 
ATOM      2  C   UNL d   1     -50.810   1.165 -16.838  0.00  0.00     0.097 A 
ATOM      3  C   UNL d   1     -51.893   1.691 -17.501  0.00  0.00     0.069 A 
ATOM      4  C   UNL d   1     -52.061   1.486 -18.838  0.00  0.00     0.049 A 
ATOM      5  N   UNL d   1     -53.139   2.027 -19.427  0.00  0.00    -0.351 N 
ATOM      6  HN  UNL d   1     -53.814   2.575 -18.894  1.00  0.00     0.166 HD
ATOM      7  C   UNL d   1     -53.296   1.820 -20.745  0.00  0.00     0.182 A 
ATOM      8  N   UNL d   1     -52.436   1.106 -21.488  0.00  0.00    -0.338 N 
ATOM      9  HN  UNL d   1     -52.594   0.974 -22.487  1.00  0.00     0.168 HD
ATOM     10  C   UNL d   1     -51.364   0.572 -20.883  0.00  0.00     0.119 A 
ATOM     11  C   UNL d   1     -51.119   0.734 -19.527  0.00  0.00     0.037 A 
ATOM     12  C   UNL d   1     -50.020   0.189 -18.897  0.00  0.00     0.050 A 
ENDROOT
BRANCH   2  13
ATOM     13  O   UNL d   1     -50.717   1.427 -15.466  0.00  0.00    -0.349 OA
BRANCH  13  14
ATOM     14  C   UNL d   1     -51.681   0.929 -14.552  0.00  0.00     0.177 C 
BRANCH  14  15
ATOM     15  C   UNL d   1     -50.986   0.109 -13.502  0.00  0.00     0.057 C 
BRANCH  15  16
ATOM     16  C   UNL d   1     -52.009  -0.373 -12.502  0.00  0.00     0.274 C 
BRANCH  16  17
ATOM     17  N   UNL d   1     -51.623  -1.578 -11.817  0.00  0.00     0.092 N 
ATOM     18  C   UNL d   1     -52.753  -2.282 -11.252  0.00  0.00     0.298 C 
ATOM     19  C   UNL d   1     -52.519  -3.796 -11.330  0.00  0.00     0.198 C 
ATOM     20  O   UNL d   1     -52.411  -4.237 -12.637  0.00  0.00    -0.388 OA
ATOM     21  C   UNL d   1     -51.858  -3.272 -13.489  0.00  0.00     0.198 C 
ATOM     22  C   UNL d   1     -50.892  -2.466 -12.662  0.00  0.00     0.298 C 
ENDBRANCH  16  17
ENDBRANCH  15  16
ENDBRANCH  14  15
ENDBRANCH  13  14
ENDBRANCH   2  13
BRANCH   1  23
ATOM     23  N   UNL d   1     -48.772  -0.107 -16.790  0.00  0.00    -0.321 N 
ATOM     24  C   UNL d   1     -48.768  -1.356 -16.123  0.00  0.00     0.245 C 
ATOM     25  O   UNL d   1     -49.796  -2.082 -16.174  0.00  0.00    -0.268 OA
ATOM     26  HN  UNL d   1     -47.924   0.457 -16.743  1.00  0.00     0.169 HD
BRANCH  24  27
ATOM     27  C   UNL d   1     -47.564  -1.751 -15.401  0.00  0.00     0.064 C 
ATOM     28  C   UNL d   1     -47.564  -2.816 -14.616  0.00  0.00     0.017 C 
ENDBRANCH  24  27
ENDBRANCH   1  23
BRANCH  10  29
ATOM     29  N   UNL d   1     -50.454  -0.181 -21.679  0.00  0.00    -0.342 N 
ATOM     30  HN  UNL d   1     -49.453  -0.156 -21.482  1.00  0.00     0.167 HD
BRANCH  29  31
ATOM     31  C   UNL d   1     -50.960  -0.975 -22.757  0.00  0.00     0.035 A 
ATOM     32  C   UNL d   1     -51.040  -0.341 -23.994  0.00  0.00     0.056 A 
ATOM     33  C   UNL d   1     -51.522  -1.058 -25.075  0.00  0.00     0.074 A 
ATOM     34 CL   UNL d   1     -51.655  -0.326 -26.680  0.00  0.00    -0.081 Cl
ATOM     35  C   UNL d   1     -51.910  -2.381 -24.901  0.00  0.00     0.138 A 
ATOM     36  F   UNL d   1     -52.375  -3.049 -25.982  0.00  0.00    -0.204 F 
ATOM     37  C   UNL d   1     -51.818  -2.970 -23.670  0.00  0.00     0.046 A 
ATOM     38  C   UNL d   1     -51.338  -2.270 -22.575  0.00  0.00     0.032 A 
ENDBRANCH  29  31
ENDBRANCH  10  29
TORSDOF 9
ENDMDL
MODEL 4
REMARK VINA RESULT:      -7.7      4.374      9.573
REMARK  9 active torsions:
REMARK  status: ('A' for Active; 'I' for Inactive)
REMARK    1  A    between atoms: C_2  and  C_3 
REMARK       I    between atoms: C_3  and  N_5 
REMARK    2  A    between atoms: N_5  and  C_7 
REMARK    3  A    between atoms: C_8  and  O_9 
REMARK    4  A    between atoms: O_9  and  C_10 
REMARK    5  A    between atoms: C_10  and  C_11 
REMARK    6  A    between atoms: C_11  and  C_12 
REMARK    7  A    between atoms: C_12  and  N_13 
REMARK    8  A    between atoms: C_26  and  N_27 
REMARK    9  A    between atoms: N_27  and  C_29 
ROOT
ATOM      1  C   UNL d   1     -50.604   0.597 -18.668  0.00  0.00     0.069 A 
ATOM      2  C   UNL d   1     -51.617   1.311 -18.064  0.00  0.00     0.097 A 
ATOM      3  C   UNL d   1     -52.689   1.748 -18.805  0.00  0.00     0.069 A 
ATOM      4  C   UNL d   1     -52.769   1.487 -20.140  0.00  0.00     0.049 A 
ATOM      5  N   UNL d   1     -53.841   1.942 -20.807  0.00  0.00    -0.351 N 
ATOM      6  HN  UNL d   1     -54.575   2.468 -20.333  1.00  0.00     0.166 HD
ATOM      7  C   UNL d   1     -53.910   1.682 -22.123  0.00  0.00     0.182 A 
ATOM      8  N   UNL d   1     -52.970   0.995 -22.791  0.00  0.00    -0.338 N 
ATOM      9  HN  UNL d   1     -53.063   0.820 -23.791  1.00  0.00     0.168 HD
ATOM     10  C   UNL d   1     -51.904   0.548 -22.109  0.00  0.00     0.119 A 
ATOM     11  C   UNL d   1     -51.747   0.770 -20.748  0.00  0.00     0.037 A 
ATOM     12  C   UNL d   1     -50.656   0.313 -20.039  0.00  0.00     0.050 A 
ENDROOT
BRANCH   2  13
ATOM     13  O   UNL d   1     -51.618   1.624 -16.700  0.00  0.00    -0.349 OA
BRANCH  13  14
ATOM     14  C   UNL d   1     -51.943   2.927 -16.241  0.00  0.00     0.177 C 
BRANCH  14  15
ATOM     15  C   UNL d   1     -51.411   3.105 -14.849  0.00  0.00     0.057 C 
BRANCH  15  16
ATOM     16  C   UNL d   1     -50.215   2.203 -14.664  0.00  0.00     0.274 C 
BRANCH  16  17
ATOM     17  N   UNL d   1     -50.218   1.490 -13.414  0.00  0.00     0.092 N 
ATOM     18  C   UNL d   1     -51.387   1.779 -12.612  0.00  0.00     0.298 C 
ATOM     19  C   UNL d   1     -51.816   0.525 -11.839  0.00  0.00     0.198 C 
ATOM     20  O   UNL d   1     -52.181  -0.505 -12.686  0.00  0.00    -0.388 OA
ATOM     21  C   UNL d   1     -51.480  -0.484 -13.899  0.00  0.00     0.198 C 
ATOM     22  C   UNL d   1     -50.115   0.079 -13.600  0.00  0.00     0.298 C 
ENDBRANCH  16  17
ENDBRANCH  15  16
ENDBRANCH  14  15
ENDBRANCH  13  14
ENDBRANCH   2  13
BRANCH   1  23
ATOM     23  N   UNL d   1     -49.515   0.165 -17.857  0.00  0.00    -0.321 N 
ATOM     24  C   UNL d   1     -49.408  -1.119 -17.269  0.00  0.00     0.245 C 
ATOM     25  O   UNL d   1     -50.321  -1.964 -17.470  0.00  0.00    -0.268 OA
ATOM     26  HN  UNL d   1     -48.758   0.827 -17.688  1.00  0.00     0.169 HD
BRANCH  24  27
ATOM     27  C   UNL d   1     -48.237  -1.409 -16.450  0.00  0.00     0.064 C 
ATOM     28  C   UNL d   1     -48.205  -2.476 -15.668  0.00  0.00     0.017 C 
ENDBRANCH  24  27
ENDBRANCH   1  23
BRANCH  10  29
ATOM     29  N   UNL d   1     -50.909  -0.177 -22.824  0.00  0.00    -0.342 N 
ATOM     30  HN  UNL d   1     -50.030   0.271 -23.083  1.00  0.00     0.167 HD
BRANCH  29  31
ATOM     31  C   UNL d   1     -51.156  -1.543 -23.175  0.00  0.00     0.035 A 
ATOM     32  C   UNL d   1     -50.715  -2.496 -22.262  0.00  0.00     0.056 A 
ATOM     33  C   UNL d   1     -50.927  -3.834 -22.547  0.00  0.00     0.074 A 
ATOM     34 CL   UNL d   1     -50.396  -5.106 -21.439  0.00  0.00    -0.081 Cl
ATOM     35  C   UNL d   1     -51.569  -4.188 -23.727  0.00  0.00     0.138 A 
ATOM     36  F   UNL d   1     -51.758  -5.507 -23.970  0.00  0.00    -0.204 F 
ATOM     37  C   UNL d   1     -51.988  -3.224 -24.601  0.00  0.00     0.046 A 
ATOM     38  C   UNL d   1     -51.786  -1.879 -24.335  0.00  0.00     0.032 A 
ENDBRANCH  29  31
ENDBRANCH  10  29
TORSDOF 9
ENDMDL
MODEL 5
REMARK VINA RESULT:      -7.4      0.802      1.164
REMARK  9 active torsions:
REMARK  status: ('A' for Active; 'I' for Inactive)
REMARK    1  A    between atoms: C_2  and  C_3 
REMARK       I    between atoms: C_3  and  N_5 
REMARK    2  A    between atoms: N_5  and  C_7 
REMARK    3  A    between atoms: C_8  and  O_9 
REMARK    4  A    between atoms: O_9  and  C_10 
REMARK    5  A    between atoms: C_10  and  C_11 
REMARK    6  A    between atoms: C_11  and  C_12 
REMARK    7  A    between atoms: C_12  and  N_13 
REMARK    8  A    between atoms: C_26  and  N_27 
REMARK    9  A    between atoms: N_27  and  C_29 
ROOT
ATOM      1  C   UNL d   1     -51.171   1.054 -19.210  0.00  0.00     0.069 A 
ATOM      2  C   UNL d   1     -50.061   0.302 -19.530  0.00  0.00     0.097 A 
ATOM      3  C   UNL d   1     -49.223  -0.146 -18.537  0.00  0.00     0.069 A 
ATOM      4  C   UNL d   1     -49.471   0.145 -17.228  0.00  0.00     0.049 A 
ATOM      5  N   UNL d   1     -48.614  -0.322 -16.307  0.00  0.00    -0.351 N 
ATOM      6  HN  UNL d   1     -47.800  -0.876 -16.574  1.00  0.00     0.166 HD
ATOM      7  C   UNL d   1     -48.866  -0.030 -15.020  0.00  0.00     0.182 A 
ATOM      8  N   UNL d   1     -49.922   0.695 -14.621  0.00  0.00    -0.338 N 
ATOM      9  HN  UNL d   1     -50.076   0.893 -13.632  1.00  0.00     0.168 HD
ATOM     10  C   UNL d   1     -50.769   1.153 -15.555  0.00  0.00     0.119 A 
ATOM     11  C   UNL d   1     -50.588   0.903 -16.907  0.00  0.00     0.037 A 
ATOM     12  C   UNL d   1     -51.454   1.370 -17.874  0.00  0.00     0.050 A 
ENDROOT
BRANCH   2  13
ATOM     13  O   UNL d   1     -49.729  -0.042 -20.845  0.00  0.00    -0.349 OA
BRANCH  13  14
ATOM     14  C   UNL d   1     -49.080  -1.268 -21.147  0.00  0.00     0.177 C 
BRANCH  14  15
ATOM     15  C   UNL d   1     -49.946  -2.065 -22.079  0.00  0.00     0.057 C 
BRANCH  15  16
ATOM     16  C   UNL d   1     -50.624  -1.123 -23.042  0.00  0.00     0.274 C 
BRANCH  16  17
ATOM     17  N   UNL d   1     -50.266  -1.347 -24.418  0.00  0.00     0.092 N 
ATOM     18  C   UNL d   1     -50.177  -2.753 -24.747  0.00  0.00     0.298 C 
ATOM     19  C   UNL d   1     -50.653  -2.985 -26.187  0.00  0.00     0.198 C 
ATOM     20  O   UNL d   1     -51.981  -2.638 -26.355  0.00  0.00    -0.388 OA
ATOM     21  C   UNL d   1     -52.378  -1.590 -25.514  0.00  0.00     0.198 C 
ATOM     22  C   UNL d   1     -51.171  -0.711 -25.320  0.00  0.00     0.298 C 
ENDBRANCH  16  17
ENDBRANCH  15  16
ENDBRANCH  14  15
ENDBRANCH  13  14
ENDBRANCH   2  13
BRANCH   1  23
ATOM     23  N   UNL d   1     -52.011   1.494 -20.274  0.00  0.00    -0.321 N 
ATOM     24  C   UNL d   1     -53.192   0.835 -20.694  0.00  0.00     0.245 C 
ATOM     25  O   UNL d   1     -53.557  -0.211 -20.094  0.00  0.00    -0.268 OA
ATOM     26  HN  UNL d   1     -51.742   2.344 -20.769  1.00  0.00     0.169 HD
BRANCH  24  27
ATOM     27  C   UNL d   1     -53.939   1.400 -21.812  0.00  0.00     0.064 C 
ATOM     28  C   UNL d   1     -53.550   1.193 -23.060  0.00  0.00     0.017 C 
ENDBRANCH  24  27
ENDBRANCH   1  23
BRANCH  10  29
ATOM     29  N   UNL d   1     -51.886   1.925 -15.124  0.00  0.00    -0.342 N 
ATOM     30  HN  UNL d   1     -52.817   1.510 -15.087  1.00  0.00     0.167 HD
BRANCH  29  31
ATOM     31  C   UNL d   1     -51.687   3.291 -14.743  0.00  0.00     0.035 A 
ATOM     32  C   UNL d   1     -50.881   3.500 -13.628  0.00  0.00     0.056 A 
ATOM     33  C   UNL d   1     -50.650   4.800 -13.212  0.00  0.00     0.074 A 
ATOM     34 CL   UNL d   1     -49.639   5.152 -11.805  0.00  0.00    -0.081 Cl
ATOM     35  C   UNL d   1     -51.225   5.854 -13.913  0.00  0.00     0.138 A 
ATOM     36  F   UNL d   1     -50.977   7.111 -13.476  0.00  0.00    -0.204 F 
ATOM     37  C   UNL d   1     -52.012   5.610 -15.004  0.00  0.00     0.046 A 
ATOM     38  C   UNL d   1     -52.255   4.315 -15.436  0.00  0.00     0.032 A 
ENDBRANCH  29  31
ENDBRANCH  10  29
TORSDOF 9
ENDMDL
MODEL 6
REMARK VINA RESULT:      -7.4      4.572      9.562
REMARK  9 active torsions:
REMARK  status: ('A' for Active; 'I' for Inactive)
REMARK    1  A    between atoms: C_2  and  C_3 
REMARK       I    between atoms: C_3  and  N_5 
REMARK    2  A    between atoms: N_5  and  C_7 
REMARK    3  A    between atoms: C_8  and  O_9 
REMARK    4  A    between atoms: O_9  and  C_10 
REMARK    5  A    between atoms: C_10  and  C_11 
REMARK    6  A    between atoms: C_11  and  C_12 
REMARK    7  A    between atoms: C_12  and  N_13 
REMARK    8  A    between atoms: C_26  and  N_27 
REMARK    9  A    between atoms: N_27  and  C_29 
ROOT
ATOM      1  C   UNL d   1     -51.299   0.337 -20.514  0.00  0.00     0.069 A 
ATOM      2  C   UNL d   1     -52.375   0.890 -19.854  0.00  0.00     0.097 A 
ATOM      3  C   UNL d   1     -53.449   1.368 -20.566  0.00  0.00     0.069 A 
ATOM      4  C   UNL d   1     -53.469   1.305 -21.927  0.00  0.00     0.049 A 
ATOM      5  N   UNL d   1     -54.547   1.789 -22.563  0.00  0.00    -0.351 N 
ATOM      6  HN  UNL d   1     -55.329   2.193 -22.048  1.00  0.00     0.166 HD
ATOM      7  C   UNL d   1     -54.558   1.723 -23.905  0.00  0.00     0.182 A 
ATOM      8  N   UNL d   1     -53.555   1.202 -24.627  0.00  0.00    -0.338 N 
ATOM      9  HN  UNL d   1     -53.604   1.171 -25.645  1.00  0.00     0.168 HD
ATOM     10  C   UNL d   1     -52.484   0.722 -23.975  0.00  0.00     0.119 A 
ATOM     11  C   UNL d   1     -52.385   0.748 -22.591  0.00  0.00     0.037 A 
ATOM     12  C   UNL d   1     -51.289   0.257 -21.913  0.00  0.00     0.050 A 
ENDROOT
BRANCH   2  13
ATOM     13  O   UNL d   1     -52.438   0.997 -18.460  0.00  0.00    -0.349 OA
BRANCH  13  14
ATOM     14  C   UNL d   1     -52.023   2.177 -17.789  0.00  0.00     0.177 C 
BRANCH  14  15
ATOM     15  C   UNL d   1     -51.787   1.861 -16.340  0.00  0.00     0.057 C 
BRANCH  15  16
ATOM     16  C   UNL d   1     -50.887   0.652 -16.244  0.00  0.00     0.274 C 
BRANCH  16  17
ATOM     17  N   UNL d   1     -50.482   0.340 -14.898  0.00  0.00     0.092 N 
ATOM     18  C   UNL d   1     -51.607   0.097 -14.022  0.00  0.00     0.298 C 
ATOM     19  C   UNL d   1     -51.248  -0.988 -12.998  0.00  0.00     0.198 C 
ATOM     20  O   UNL d   1     -50.968  -2.199 -13.603  0.00  0.00    -0.388 OA
ATOM     21  C   UNL d   1     -50.405  -2.050 -14.878  0.00  0.00     0.198 C 
ATOM     22  C   UNL d   1     -49.598  -0.779 -14.849  0.00  0.00     0.298 C 
ENDBRANCH  16  17
ENDBRANCH  15  16
ENDBRANCH  14  15
ENDBRANCH  13  14
ENDBRANCH   2  13
BRANCH   1  23
ATOM     23  N   UNL d   1     -50.210  -0.146 -19.732  0.00  0.00    -0.321 N 
ATOM     24  C   UNL d   1     -50.120  -1.453 -19.195  0.00  0.00     0.245 C 
ATOM     25  O   UNL d   1     -51.049  -2.273 -19.419  0.00  0.00    -0.268 OA
ATOM     26  HN  UNL d   1     -49.440   0.496 -19.545  1.00  0.00     0.169 HD
BRANCH  24  27
ATOM     27  C   UNL d   1     -48.946  -1.795 -18.399  0.00  0.00     0.064 C 
ATOM     28  C   UNL d   1     -47.747  -1.348 -18.735  0.00  0.00     0.017 C 
ENDBRANCH  24  27
ENDBRANCH   1  23
BRANCH  10  29
ATOM     29  N   UNL d   1     -51.421   0.173 -24.747  0.00  0.00    -0.342 N 
ATOM     30  HN  UNL d   1     -50.819   0.780 -25.303  1.00  0.00     0.167 HD
BRANCH  29  31
ATOM     31  C   UNL d   1     -51.208  -1.243 -24.735  0.00  0.00     0.035 A 
ATOM     32  C   UNL d   1     -49.880  -1.658 -24.723  0.00  0.00     0.056 A 
ATOM     33  C   UNL d   1     -49.611  -3.016 -24.710  0.00  0.00     0.074 A 
ATOM     34 CL   UNL d   1     -47.951  -3.626 -24.694  0.00  0.00    -0.081 Cl
ATOM     35  C   UNL d   1     -50.664  -3.922 -24.709  0.00  0.00     0.138 A 
ATOM     36  F   UNL d   1     -50.361  -5.242 -24.696  0.00  0.00    -0.204 F 
ATOM     37  C   UNL d   1     -51.957  -3.477 -24.723  0.00  0.00     0.046 A 
ATOM     38  C   UNL d   1     -52.248  -2.122 -24.736  0.00  0.00     0.032 A 
ENDBRANCH  29  31
ENDBRANCH  10  29
TORSDOF 9
ENDMDL
MODEL 7
REMARK VINA RESULT:      -7.3      3.065      4.686
REMARK  9 active torsions:
REMARK  status: ('A' for Active; 'I' for Inactive)
REMARK    1  A    between atoms: C_2  and  C_3 
REMARK       I    between atoms: C_3  and  N_5 
REMARK    2  A    between atoms: N_5  and  C_7 
REMARK    3  A    between atoms: C_8  and  O_9 
REMARK    4  A    between atoms: O_9  and  C_10 
REMARK    5  A    between atoms: C_10  and  C_11 
REMARK    6  A    between atoms: C_11  and  C_12 
REMARK    7  A    between atoms: C_12  and  N_13 
REMARK    8  A    between atoms: C_26  and  N_27 
REMARK    9  A    between atoms: N_27  and  C_29 
ROOT
ATOM      1  C   UNL d   1     -50.508  -0.261 -19.698  0.00  0.00     0.069 A 
ATOM      2  C   UNL d   1     -51.382   0.591 -20.338  0.00  0.00     0.097 A 
ATOM      3  C   UNL d   1     -52.034   1.570 -19.627  0.00  0.00     0.069 A 
ATOM      4  C   UNL d   1     -51.832   1.714 -18.287  0.00  0.00     0.049 A 
ATOM      5  N   UNL d   1     -52.500   2.689 -17.651  0.00  0.00    -0.351 N 
ATOM      6  HN  UNL d   1     -53.141   3.305 -18.151  1.00  0.00     0.166 HD
ATOM      7  C   UNL d   1     -52.294   2.823 -16.331  0.00  0.00     0.182 A 
ATOM      8  N   UNL d   1     -51.462   2.038 -15.629  0.00  0.00    -0.338 N 
ATOM      9  HN  UNL d   1     -51.335   2.175 -14.626  1.00  0.00     0.168 HD
ATOM     10  C   UNL d   1     -50.802   1.068 -16.281  0.00  0.00     0.119 A 
ATOM     11  C   UNL d   1     -50.952   0.855 -17.643  0.00  0.00     0.037 A 
ATOM     12  C   UNL d   1     -50.277  -0.139 -18.321  0.00  0.00     0.050 A 
ENDROOT
BRANCH   2  13
ATOM     13  O   UNL d   1     -51.651   0.515 -21.709  0.00  0.00    -0.349 OA
BRANCH  13  14
ATOM     14  C   UNL d   1     -52.944   0.792 -22.225  0.00  0.00     0.177 C 
BRANCH  14  15
ATOM     15  C   UNL d   1     -52.827   1.156 -23.677  0.00  0.00     0.057 C 
BRANCH  15  16
ATOM     16  C   UNL d   1     -51.772   0.285 -24.315  0.00  0.00     0.274 C 
BRANCH  16  17
ATOM     17  N   UNL d   1     -52.285  -0.957 -24.832  0.00  0.00     0.092 N 
ATOM     18  C   UNL d   1     -52.180  -1.044 -26.272  0.00  0.00     0.298 C 
ATOM     19  C   UNL d   1     -51.887  -2.491 -26.689  0.00  0.00     0.198 C 
ATOM     20  O   UNL d   1     -50.677  -2.939 -26.191  0.00  0.00    -0.388 OA
ATOM     21  C   UNL d   1     -50.346  -2.352 -24.963  0.00  0.00     0.198 C 
ATOM     22  C   UNL d   1     -51.644  -2.089 -24.245  0.00  0.00     0.298 C 
ENDBRANCH  16  17
ENDBRANCH  15  16
ENDBRANCH  14  15
ENDBRANCH  13  14
ENDBRANCH   2  13
BRANCH   1  23
ATOM     23  N   UNL d   1     -49.855  -1.258 -20.478  0.00  0.00    -0.321 N 
ATOM     24  C   UNL d   1     -50.312  -2.590 -20.632  0.00  0.00     0.245 C 
ATOM     25  O   UNL d   1     -51.377  -2.942 -20.058  0.00  0.00    -0.268 OA
ATOM     26  HN  UNL d   1     -48.996  -0.995 -20.961  1.00  0.00     0.169 HD
BRANCH  24  27
ATOM     27  C   UNL d   1     -49.524  -3.502 -21.453  0.00  0.00     0.064 C 
ATOM     28  C   UNL d   1     -49.239  -4.722 -21.027  0.00  0.00     0.017 C 
ENDBRANCH  24  27
ENDBRANCH   1  23
BRANCH  10  29
ATOM     29  N   UNL d   1     -49.923   0.237 -15.530  0.00  0.00    -0.342 N 
ATOM     30  HN  UNL d   1     -48.928   0.456 -15.472  1.00  0.00     0.167 HD
BRANCH  29  31
ATOM     31  C   UNL d   1     -50.452  -0.911 -14.856  0.00  0.00     0.035 A 
ATOM     32  C   UNL d   1     -51.180  -0.654 -13.699  0.00  0.00     0.056 A 
ATOM     33  C   UNL d   1     -51.718  -1.725 -13.004  0.00  0.00     0.074 A 
ATOM     34 CL   UNL d   1     -52.656  -1.485 -11.524  0.00  0.00    -0.081 Cl
ATOM     35  C   UNL d   1     -51.517  -3.016 -13.477  0.00  0.00     0.138 A 
ATOM     36  F   UNL d   1     -52.058  -4.037 -12.770  0.00  0.00    -0.204 F 
ATOM     37  C   UNL d   1     -50.794  -3.229 -14.617  0.00  0.00     0.046 A 
ATOM     38  C   UNL d   1     -50.248  -2.171 -15.328  0.00  0.00     0.032 A 
ENDBRANCH  29  31
ENDBRANCH  10  29
TORSDOF 9
ENDMDL
MODEL 8
REMARK VINA RESULT:      -7.3      2.258      4.368
REMARK  9 active torsions:
REMARK  status: ('A' for Active; 'I' for Inactive)
REMARK    1  A    between atoms: C_2  and  C_3 
REMARK       I    between atoms: C_3  and  N_5 
REMARK    2  A    between atoms: N_5  and  C_7 
REMARK    3  A    between atoms: C_8  and  O_9 
REMARK    4  A    between atoms: O_9  and  C_10 
REMARK    5  A    between atoms: C_10  and  C_11 
REMARK    6  A    between atoms: C_11  and  C_12 
REMARK    7  A    between atoms: C_12  and  N_13 
REMARK    8  A    between atoms: C_26  and  N_27 
REMARK    9  A    between atoms: N_27  and  C_29 
ROOT
ATOM      1  C   UNL d   1     -48.807  -0.544 -17.997  0.00  0.00     0.069 A 
ATOM      2  C   UNL d   1     -48.511  -0.484 -19.342  0.00  0.00     0.097 A 
ATOM      3  C   UNL d   1     -49.359   0.166 -20.206  0.00  0.00     0.069 A 
ATOM      4  C   UNL d   1     -50.500   0.758 -19.753  0.00  0.00     0.049 A 
ATOM      5  N   UNL d   1     -51.286   1.376 -20.648  0.00  0.00    -0.351 N 
ATOM      6  HN  UNL d   1     -51.041   1.405 -21.637  1.00  0.00     0.166 HD
ATOM      7  C   UNL d   1     -52.409   1.956 -20.192  0.00  0.00     0.182 A 
ATOM      8  N   UNL d   1     -52.773   1.946 -18.900  0.00  0.00    -0.338 N 
ATOM      9  HN  UNL d   1     -53.635   2.400 -18.597  1.00  0.00     0.168 HD
ATOM     10  C   UNL d   1     -51.976   1.323 -18.019  0.00  0.00     0.119 A 
ATOM     11  C   UNL d   1     -50.798   0.696 -18.398  0.00  0.00     0.037 A 
ATOM     12  C   UNL d   1     -49.972   0.055 -17.499  0.00  0.00     0.050 A 
ENDROOT
BRANCH   2  13
ATOM     13  O   UNL d   1     -47.363  -1.064 -19.894  0.00  0.00    -0.349 OA
BRANCH  13  14
ATOM     14  C   UNL d   1     -47.212  -1.211 -21.298  0.00  0.00     0.177 C 
BRANCH  14  15
ATOM     15  C   UNL d   1     -47.092  -2.671 -21.630  0.00  0.00     0.057 C 
BRANCH  15  16
ATOM     16  C   UNL d   1     -48.058  -3.000 -22.742  0.00  0.00     0.274 C 
BRANCH  16  17
ATOM     17  N   UNL d   1     -49.433  -2.730 -22.411  0.00  0.00     0.092 N 
ATOM     18  C   UNL d   1     -50.165  -2.148 -23.515  0.00  0.00     0.298 C 
ATOM     19  C   UNL d   1     -51.616  -2.649 -23.502  0.00  0.00     0.198 C 
ATOM     20  O   UNL d   1     -51.691  -4.019 -23.675  0.00  0.00    -0.388 OA
ATOM     21  C   UNL d   1     -50.582  -4.694 -23.149  0.00  0.00     0.198 C 
ATOM     22  C   UNL d   1     -50.116  -3.898 -21.958  0.00  0.00     0.298 C 
ENDBRANCH  16  17
ENDBRANCH  15  16
ENDBRANCH  14  15
ENDBRANCH  13  14
ENDBRANCH   2  13
BRANCH   1  23
ATOM     23  N   UNL d   1     -47.895  -1.228 -17.142  0.00  0.00    -0.321 N 
ATOM     24  C   UNL d   1     -47.938  -2.616 -16.864  0.00  0.00     0.245 C 
ATOM     25  O   UNL d   1     -48.827  -3.323 -17.407  0.00  0.00    -0.268 OA
ATOM     26  HN  UNL d   1     -47.159  -0.679 -16.698  1.00  0.00     0.169 HD
BRANCH  24  27
ATOM     27  C   UNL d   1     -46.943  -3.170 -15.953  0.00  0.00     0.064 C 
ATOM     28  C   UNL d   1     -46.054  -4.053 -16.377  0.00  0.00     0.017 C 
ENDBRANCH  24  27
ENDBRANCH   1  23
BRANCH  10  29
ATOM     29  N   UNL d   1     -52.370   1.314 -16.651  0.00  0.00    -0.342 N 
ATOM     30  HN  UNL d   1     -52.974   0.574 -16.293  1.00  0.00     0.167 HD
BRANCH  29  31
ATOM     31  C   UNL d   1     -51.910   2.356 -15.783  0.00  0.00     0.035 A 
ATOM     32  C   UNL d   1     -52.398   3.631 -16.052  0.00  0.00     0.056 A 
ATOM     33  C   UNL d   1     -51.989   4.679 -15.246  0.00  0.00     0.074 A 
ATOM     34 CL   UNL d   1     -52.562   6.330 -15.520  0.00  0.00    -0.081 Cl
ATOM     35  C   UNL d   1     -51.108   4.434 -14.199  0.00  0.00     0.138 A 
ATOM     36  F   UNL d   1     -50.731   5.485 -13.433  0.00  0.00    -0.204 F 
ATOM     37  C   UNL d   1     -50.649   3.168 -13.966  0.00  0.00     0.046 A 
ATOM     38  C   UNL d   1     -51.047   2.104 -14.761  0.00  0.00     0.032 A 
ENDBRANCH  29  31
ENDBRANCH  10  29
TORSDOF 9
ENDMDL
MODEL 9
REMARK VINA RESULT:      -7.2      1.972      3.129
REMARK  9 active torsions:
REMARK  status: ('A' for Active; 'I' for Inactive)
REMARK    1  A    between atoms: C_2  and  C_3 
REMARK       I    between atoms: C_3  and  N_5 
REMARK    2  A    between atoms: N_5  and  C_7 
REMARK    3  A    between atoms: C_8  and  O_9 
REMARK    4  A    between atoms: O_9  and  C_10 
REMARK    5  A    between atoms: C_10  and  C_11 
REMARK    6  A    between atoms: C_11  and  C_12 
REMARK    7  A    between atoms: C_12  and  N_13 
REMARK    8  A    between atoms: C_26  and  N_27 
REMARK    9  A    between atoms: N_27  and  C_29 
ROOT
ATOM      1  C   UNL d   1     -51.386   1.064 -19.556  0.00  0.00     0.069 A 
ATOM      2  C   UNL d   1     -50.281   0.322 -19.911  0.00  0.00     0.097 A 
ATOM      3  C   UNL d   1     -49.430  -0.154 -18.942  0.00  0.00     0.069 A 
ATOM      4  C   UNL d   1     -49.661   0.099 -17.623  0.00  0.00     0.049 A 
ATOM      5  N   UNL d   1     -48.792  -0.394 -16.727  0.00  0.00    -0.351 N 
ATOM      6  HN  UNL d   1     -47.982  -0.940 -17.019  1.00  0.00     0.166 HD
ATOM      7  C   UNL d   1     -49.028  -0.139 -15.429  0.00  0.00     0.182 A 
ATOM      8  N   UNL d   1     -50.079   0.575 -14.995  0.00  0.00    -0.338 N 
ATOM      9  HN  UNL d   1     -50.220   0.744 -13.999  1.00  0.00     0.168 HD
ATOM     10  C   UNL d   1     -50.938   1.059 -15.905  0.00  0.00     0.119 A 
ATOM     11  C   UNL d   1     -50.774   0.848 -17.266  0.00  0.00     0.037 A 
ATOM     12  C   UNL d   1     -51.652   1.342 -18.209  0.00  0.00     0.050 A 
ENDROOT
BRANCH   2  13
ATOM     13  O   UNL d   1     -49.965   0.015 -21.240  0.00  0.00    -0.349 OA
BRANCH  13  14
ATOM     14  C   UNL d   1     -50.395  -1.196 -21.841  0.00  0.00     0.177 C 
BRANCH  14  15
ATOM     15  C   UNL d   1     -49.217  -2.114 -21.996  0.00  0.00     0.057 C 
BRANCH  15  16
ATOM     16  C   UNL d   1     -49.409  -3.312 -21.098  0.00  0.00     0.274 C 
BRANCH  16  17
ATOM     17  N   UNL d   1     -48.201  -3.743 -20.445  0.00  0.00     0.092 N 
ATOM     18  C   UNL d   1     -47.363  -2.636 -20.040  0.00  0.00     0.298 C 
ATOM     19  C   UNL d   1     -46.654  -2.971 -18.721  0.00  0.00     0.198 C 
ATOM     20  O   UNL d   1     -47.551  -3.167 -17.687  0.00  0.00    -0.388 OA
ATOM     21  C   UNL d   1     -48.773  -3.695 -18.123  0.00  0.00     0.198 C 
ATOM     22  C   UNL d   1     -48.468  -4.568 -19.311  0.00  0.00     0.298 C 
ENDBRANCH  16  17
ENDBRANCH  15  16
ENDBRANCH  14  15
ENDBRANCH  13  14
ENDBRANCH   2  13
BRANCH   1  23
ATOM     23  N   UNL d   1     -52.239   1.534 -20.597  0.00  0.00    -0.321 N 
ATOM     24  C   UNL d   1     -53.461   0.926 -20.974  0.00  0.00     0.245 C 
ATOM     25  O   UNL d   1     -53.853  -0.099 -20.355  0.00  0.00    -0.268 OA
ATOM     26  HN  UNL d   1     -51.949   2.368 -21.106  1.00  0.00     0.169 HD
BRANCH  24  27
ATOM     27  C   UNL d   1     -54.218   1.516 -22.072  0.00  0.00     0.064 C 
ATOM     28  C   UNL d   1     -53.819   1.369 -23.325  0.00  0.00     0.017 C 
ENDBRANCH  24  27
ENDBRANCH   1  23
BRANCH  10  29
ATOM     29  N   UNL d   1     -52.049   1.818 -15.438  0.00  0.00    -0.342 N 
ATOM     30  HN  UNL d   1     -52.975   1.396 -15.382  1.00  0.00     0.167 HD
BRANCH  29  31
ATOM     31  C   UNL d   1     -51.849   3.182 -15.048  0.00  0.00     0.035 A 
ATOM     32  C   UNL d   1     -51.048   3.383 -13.929  0.00  0.00     0.056 A 
ATOM     33  C   UNL d   1     -50.818   4.680 -13.504  0.00  0.00     0.074 A 
ATOM     34 CL   UNL d   1     -49.812   5.022 -12.090  0.00  0.00    -0.081 Cl
ATOM     35  C   UNL d   1     -51.388   5.739 -14.201  0.00  0.00     0.138 A 
ATOM     36  F   UNL d   1     -51.140   6.993 -13.755  0.00  0.00    -0.204 F 
ATOM     37  C   UNL d   1     -52.171   5.502 -15.296  0.00  0.00     0.046 A 
ATOM     38  C   UNL d   1     -52.413   4.211 -15.738  0.00  0.00     0.032 A 
ENDBRANCH  29  31
ENDBRANCH  10  29
TORSDOF 9
ENDMDL
