MODEL 1
REMARK VINA RESULT:      -7.8      0.000      0.000
REMARK  6 active torsions:
REMARK  status: ('A' for Active; 'I' for Inactive)
REMARK    1  A    between atoms: O_2  and  C_3 
REMARK    2  A    between atoms: C_4  and  O_5 
REMARK    3  A    between atoms: O_5  and  C_6 
REMARK    4  A    between atoms: C_6  and  C_7 
REMARK    5  A    between atoms: C_21  and  N_22 
REMARK    6  A    between atoms: N_22  and  C_24 
ROOT
ATOM      1  C   UNL d   1     -49.829   0.187 -18.588  0.00  0.00     0.102 A 
ATOM      2  C   UNL d   1     -50.637   0.830 -17.657  0.00  0.00     0.104 A 
ATOM      3  C   UNL d   1     -51.835   1.388 -18.048  0.00  0.00     0.070 A 
ATOM      4  C   UNL d   1     -52.217   1.295 -19.387  0.00  0.00     0.050 A 
ATOM      5  N   UNL d   1     -53.375   1.822 -19.823  0.00  0.00    -0.351 N 
ATOM      6  HN  UNL d   1     -53.988   2.300 -19.160  1.00  0.00     0.166 HD
ATOM      7  C   UNL d   1     -53.745   1.733 -21.113  0.00  0.00     0.182 A 
ATOM      8  N   UNL d   1     -52.965   1.112 -22.015  0.00  0.00    -0.338 N 
ATOM      9  HN  UNL d   1     -53.270   1.061 -22.987  1.00  0.00     0.168 HD
ATOM     10  C   UNL d   1     -51.799   0.562 -21.664  0.00  0.00     0.119 A 
ATOM     11  C   UNL d   1     -51.431   0.661 -20.329  0.00  0.00     0.038 A 
ATOM     12  C   UNL d   1     -50.243   0.117 -19.902  0.00  0.00     0.057 A 
ENDROOT
BRANCH  10  13
ATOM     13  N   UNL d   1     -50.922  -0.104 -22.532  0.00  0.00    -0.337 N 
ATOM     14  HN  UNL d   1     -49.984  -0.353 -22.216  1.00  0.00     0.167 HD
BRANCH  13  15
ATOM     15  C   UNL d   1     -51.332  -0.428 -23.833  0.00  0.00     0.112 A 
ATOM     16  C   UNL d   1     -51.310   0.486 -24.886  0.00  0.00     0.147 A 
ATOM     17  F   UNL d   1     -50.871   1.750 -24.649  0.00  0.00    -0.204 F 
ATOM     18  C   UNL d   1     -51.736   0.087 -26.156  0.00  0.00     0.064 A 
ATOM     19  C   UNL d   1     -52.186  -1.216 -26.385  0.00  0.00     0.017 A 
ATOM     20 BR   UNL d   1     -52.769  -1.749 -28.140  0.00  0.00    -0.051 Br
ATOM     21  C   UNL d   1     -52.207  -2.128 -25.329  0.00  0.00     0.064 A 
ATOM     22  C   UNL d   1     -51.782  -1.732 -24.061  0.00  0.00     0.147 A 
ATOM     23  F   UNL d   1     -51.801  -2.623 -23.020  0.00  0.00    -0.204 F 
ENDBRANCH  13  15
ENDBRANCH  10  13
BRANCH   1  24
ATOM     24  O   UNL d   1     -48.627  -0.381 -18.232  0.00  0.00    -0.353 OA
ATOM     25  C   UNL d   1     -48.571  -1.785 -18.071  0.00  0.00     0.210 C 
ENDBRANCH   1  24
BRANCH   2  26
ATOM     26  O   UNL d   1     -50.162   0.864 -16.355  0.00  0.00    -0.346 OA
BRANCH  26  27
ATOM     27  C   UNL d   1     -50.755   0.090 -15.354  0.00  0.00     0.209 C 
BRANCH  27  28
ATOM     28  C   UNL d   1     -51.163   0.931 -14.151  0.00  0.00     0.174 C 
ATOM     29  C   UNL d   1     -51.957   0.028 -13.229  0.00  0.00     0.305 C 
ATOM     30  N   UNL d   1     -51.349  -1.286 -13.313  0.00  0.00     0.088 N 
ATOM     31  C   UNL d   1     -51.831  -2.168 -12.269  0.00  0.00     0.310 C 
ATOM     32  C   UNL d   1     -49.919  -1.106 -13.269  0.00  0.00     0.298 C 
ATOM     33  C   UNL d   1     -49.513   0.222 -12.710  0.00  0.00     0.198 C 
ATOM     34  O   UNL d   1     -49.988   1.293 -13.462  0.00  0.00    -0.380 OA
ENDBRANCH  27  28
ENDBRANCH  26  27
ENDBRANCH   2  26
TORSDOF 6
ENDMDL
MODEL 2
REMARK VINA RESULT:      -7.7      1.996      2.559
REMARK  6 active torsions:
REMARK  status: ('A' for Active; 'I' for Inactive)
REMARK    1  A    between atoms: O_2  and  C_3 
REMARK    2  A    between atoms: C_4  and  O_5 
REMARK    3  A    between atoms: O_5  and  C_6 
REMARK    4  A    between atoms: C_6  and  C_7 
REMARK    5  A    between atoms: C_21  and  N_22 
REMARK    6  A    between atoms: N_22  and  C_24 
ROOT
ATOM      1  C   UNL d   1     -49.631   0.024 -16.754  0.00  0.00     0.102 A 
ATOM      2  C   UNL d   1     -50.534   0.686 -15.932  0.00  0.00     0.104 A 
ATOM      3  C   UNL d   1     -51.579   1.398 -16.482  0.00  0.00     0.070 A 
ATOM      4  C   UNL d   1     -51.708   1.440 -17.871  0.00  0.00     0.050 A 
ATOM      5  N   UNL d   1     -52.708   2.120 -18.461  0.00  0.00    -0.351 N 
ATOM      6  HN  UNL d   1     -53.386   2.615 -17.880  1.00  0.00     0.166 HD
ATOM      7  C   UNL d   1     -52.833   2.161 -19.799  0.00  0.00     0.182 A 
ATOM      8  N   UNL d   1     -51.961   1.521 -20.596  0.00  0.00    -0.338 N 
ATOM      9  HN  UNL d   1     -52.080   1.570 -21.608  1.00  0.00     0.168 HD
ATOM     10  C   UNL d   1     -50.940   0.823 -20.091  0.00  0.00     0.119 A 
ATOM     11  C   UNL d   1     -50.822   0.790 -18.708  0.00  0.00     0.038 A 
ATOM     12  C   UNL d   1     -49.794   0.090 -18.123  0.00  0.00     0.057 A 
ENDROOT
BRANCH  10  13
ATOM     13  N   UNL d   1     -49.982   0.126 -20.840  0.00  0.00    -0.337 N 
ATOM     14  HN  UNL d   1     -49.007   0.427 -20.829  1.00  0.00     0.167 HD
BRANCH  13  15
ATOM     15  C   UNL d   1     -50.362  -0.986 -21.606  0.00  0.00     0.112 A 
ATOM     16  C   UNL d   1     -50.897  -0.877 -22.889  0.00  0.00     0.147 A 
ATOM     17  F   UNL d   1     -51.059   0.359 -23.430  0.00  0.00    -0.204 F 
ATOM     18  C   UNL d   1     -51.253  -2.033 -23.589  0.00  0.00     0.064 A 
ATOM     19  C   UNL d   1     -51.081  -3.298 -23.019  0.00  0.00     0.017 A 
ATOM     20 BR   UNL d   1     -51.577  -4.880 -23.997  0.00  0.00    -0.051 Br
ATOM     21  C   UNL d   1     -50.546  -3.403 -21.735  0.00  0.00     0.064 A 
ATOM     22  C   UNL d   1     -50.190  -2.250 -21.035  0.00  0.00     0.147 A 
ATOM     23  F   UNL d   1     -49.665  -2.347 -19.774  0.00  0.00    -0.204 F 
ENDBRANCH  13  15
ENDBRANCH  10  13
BRANCH   1  24
ATOM     24  O   UNL d   1     -48.577  -0.696 -16.239  0.00  0.00    -0.353 OA
ATOM     25  C   UNL d   1     -48.048  -1.756 -17.011  0.00  0.00     0.210 C 
ENDBRANCH   1  24
BRANCH   2  26
ATOM     26  O   UNL d   1     -50.313   0.579 -14.567  0.00  0.00    -0.346 OA
BRANCH  26  27
ATOM     27  C   UNL d   1     -50.968  -0.394 -13.808  0.00  0.00     0.209 C 
BRANCH  27  28
ATOM     28  C   UNL d   1     -50.129  -0.851 -12.622  0.00  0.00     0.174 C 
ATOM     29  C   UNL d   1     -50.943  -1.887 -11.876  0.00  0.00     0.305 C 
ATOM     30  N   UNL d   1     -51.668  -2.644 -12.880  0.00  0.00     0.088 N 
ATOM     31  C   UNL d   1     -52.259  -3.844 -12.323  0.00  0.00     0.310 C 
ATOM     32  C   UNL d   1     -50.751  -2.926 -13.955  0.00  0.00     0.298 C 
ATOM     33  C   UNL d   1     -49.315  -2.794 -13.551  0.00  0.00     0.198 C 
ATOM     34  O   UNL d   1     -48.989  -1.508 -13.129  0.00  0.00    -0.380 OA
ENDBRANCH  27  28
ENDBRANCH  26  27
ENDBRANCH   2  26
TORSDOF 6
ENDMDL
MODEL 3
REMARK VINA RESULT:      -7.3      2.067      2.870
REMARK  6 active torsions:
REMARK  status: ('A' for Active; 'I' for Inactive)
REMARK    1  A    between atoms: O_2  and  C_3 
REMARK    2  A    between atoms: C_4  and  O_5 
REMARK    3  A    between atoms: O_5  and  C_6 
REMARK    4  A    between atoms: C_6  and  C_7 
REMARK    5  A    between atoms: C_21  and  N_22 
REMARK    6  A    between atoms: N_22  and  C_24 
ROOT
ATOM      1  C   UNL d   1     -49.696   0.226 -16.716  0.00  0.00     0.102 A 
ATOM      2  C   UNL d   1     -50.613   0.925 -15.940  0.00  0.00     0.104 A 
ATOM      3  C   UNL d   1     -51.660   1.592 -16.536  0.00  0.00     0.070 A 
ATOM      4  C   UNL d   1     -51.781   1.552 -17.926  0.00  0.00     0.050 A 
ATOM      5  N   UNL d   1     -52.783   2.185 -18.561  0.00  0.00    -0.351 N 
ATOM      6  HN  UNL d   1     -53.470   2.706 -18.015  1.00  0.00     0.166 HD
ATOM      7  C   UNL d   1     -52.900   2.147 -19.901  0.00  0.00     0.182 A 
ATOM      8  N   UNL d   1     -52.015   1.472 -20.654  0.00  0.00    -0.338 N 
ATOM      9  HN  UNL d   1     -52.128   1.460 -21.667  1.00  0.00     0.168 HD
ATOM     10  C   UNL d   1     -50.990   0.816 -20.102  0.00  0.00     0.119 A 
ATOM     11  C   UNL d   1     -50.882   0.864 -18.718  0.00  0.00     0.038 A 
ATOM     12  C   UNL d   1     -49.851   0.210 -18.087  0.00  0.00     0.057 A 
ENDROOT
BRANCH  10  13
ATOM     13  N   UNL d   1     -50.020   0.086 -20.803  0.00  0.00    -0.337 N 
ATOM     14  HN  UNL d   1     -49.054   0.415 -20.829  1.00  0.00     0.167 HD
BRANCH  13  15
ATOM     15  C   UNL d   1     -50.375  -1.096 -21.469  0.00  0.00     0.112 A 
ATOM     16  C   UNL d   1     -50.286  -2.356 -20.879  0.00  0.00     0.147 A 
ATOM     17  F   UNL d   1     -49.835  -2.451 -19.600  0.00  0.00    -0.204 F 
ATOM     18  C   UNL d   1     -50.658  -3.488 -21.608  0.00  0.00     0.064 A 
ATOM     19  C   UNL d   1     -51.119  -3.375 -22.923  0.00  0.00     0.017 A 
ATOM     20 BR   UNL d   1     -51.629  -4.945 -23.913  0.00  0.00    -0.051 Br
ATOM     21  C   UNL d   1     -51.208  -2.113 -23.510  0.00  0.00     0.064 A 
ATOM     22  C   UNL d   1     -50.837  -0.981 -22.784  0.00  0.00     0.147 A 
ATOM     23  F   UNL d   1     -50.921   0.260 -23.356  0.00  0.00    -0.204 F 
ENDBRANCH  13  15
ENDBRANCH  10  13
BRANCH   1  24
ATOM     24  O   UNL d   1     -48.639  -0.452 -16.153  0.00  0.00    -0.353 OA
ATOM     25  C   UNL d   1     -48.163  -1.613 -16.805  0.00  0.00     0.210 C 
ENDBRANCH   1  24
BRANCH   2  26
ATOM     26  O   UNL d   1     -50.400   0.899 -14.569  0.00  0.00    -0.346 OA
BRANCH  26  27
ATOM     27  C   UNL d   1     -51.472   0.812 -13.678  0.00  0.00     0.209 C 
BRANCH  27  28
ATOM     28  C   UNL d   1     -51.071   1.214 -12.264  0.00  0.00     0.174 C 
ATOM     29  C   UNL d   1     -52.283   0.998 -11.382  0.00  0.00     0.305 C 
ATOM     30  N   UNL d   1     -52.953  -0.187 -11.884  0.00  0.00     0.088 N 
ATOM     31  C   UNL d   1     -53.961  -0.664 -10.958  0.00  0.00     0.310 C 
ATOM     32  C   UNL d   1     -51.940  -1.174 -12.158  0.00  0.00     0.298 C 
ATOM     33  C   UNL d   1     -50.648  -0.900 -11.455  0.00  0.00     0.198 C 
ATOM     34  O   UNL d   1     -50.077   0.314 -11.828  0.00  0.00    -0.380 OA
ENDBRANCH  27  28
ENDBRANCH  26  27
ENDBRANCH   2  26
TORSDOF 6
ENDMDL
MODEL 4
REMARK VINA RESULT:      -7.2      2.515      4.063
REMARK  6 active torsions:
REMARK  status: ('A' for Active; 'I' for Inactive)
REMARK    1  A    between atoms: O_2  and  C_3 
REMARK    2  A    between atoms: C_4  and  O_5 
REMARK    3  A    between atoms: O_5  and  C_6 
REMARK    4  A    between atoms: C_6  and  C_7 
REMARK    5  A    between atoms: C_21  and  N_22 
REMARK    6  A    between atoms: N_22  and  C_24 
ROOT
ATOM      1  C   UNL d   1     -50.531   1.007 -15.735  0.00  0.00     0.102 A 
ATOM      2  C   UNL d   1     -50.572  -0.064 -14.851  0.00  0.00     0.104 A 
ATOM      3  C   UNL d   1     -50.485  -1.356 -15.322  0.00  0.00     0.070 A 
ATOM      4  C   UNL d   1     -50.357  -1.565 -16.696  0.00  0.00     0.050 A 
ATOM      5  N   UNL d   1     -50.269  -2.804 -17.210  0.00  0.00    -0.351 N 
ATOM      6  HN  UNL d   1     -50.296  -3.609 -16.583  1.00  0.00     0.166 HD
ATOM      7  C   UNL d   1     -50.145  -3.007 -18.534  0.00  0.00     0.182 A 
ATOM      8  N   UNL d   1     -50.106  -1.973 -19.392  0.00  0.00    -0.338 N 
ATOM      9  HN  UNL d   1     -50.012  -2.156 -20.391  1.00  0.00     0.168 HD
ATOM     10  C   UNL d   1     -50.187  -0.710 -18.963  0.00  0.00     0.119 A 
ATOM     11  C   UNL d   1     -50.314  -0.516 -17.594  0.00  0.00     0.038 A 
ATOM     12  C   UNL d   1     -50.403   0.758 -17.086  0.00  0.00     0.057 A 
ENDROOT
BRANCH  10  13
ATOM     13  N   UNL d   1     -50.155   0.429 -19.779  0.00  0.00    -0.337 N 
ATOM     14  HN  UNL d   1     -49.382   1.090 -19.703  1.00  0.00     0.167 HD
BRANCH  13  15
ATOM     15  C   UNL d   1     -51.186   0.661 -20.702  0.00  0.00     0.112 A 
ATOM     16  C   UNL d   1     -52.315   1.423 -20.403  0.00  0.00     0.147 A 
ATOM     17  F   UNL d   1     -52.428   1.970 -19.164  0.00  0.00    -0.204 F 
ATOM     18  C   UNL d   1     -53.301   1.608 -21.376  0.00  0.00     0.064 A 
ATOM     19  C   UNL d   1     -53.170   1.038 -22.646  0.00  0.00     0.017 A 
ATOM     20 BR   UNL d   1     -54.537   1.303 -23.975  0.00  0.00    -0.051 Br
ATOM     21  C   UNL d   1     -52.040   0.276 -22.942  0.00  0.00     0.064 A 
ATOM     22  C   UNL d   1     -51.055   0.091 -21.971  0.00  0.00     0.147 A 
ATOM     23  F   UNL d   1     -49.943  -0.657 -22.256  0.00  0.00    -0.204 F 
ENDBRANCH  13  15
ENDBRANCH  10  13
BRANCH   1  24
ATOM     24  O   UNL d   1     -50.615   2.310 -15.299  0.00  0.00    -0.353 OA
ATOM     25  C   UNL d   1     -51.755   3.066 -15.659  0.00  0.00     0.210 C 
ENDBRANCH   1  24
BRANCH   2  26
ATOM     26  O   UNL d   1     -50.701   0.256 -13.507  0.00  0.00    -0.346 OA
BRANCH  26  27
ATOM     27  C   UNL d   1     -51.922   0.098 -12.846  0.00  0.00     0.209 C 
BRANCH  27  28
ATOM     28  C   UNL d   1     -51.910   0.744 -11.467  0.00  0.00     0.174 C 
ATOM     29  C   UNL d   1     -53.237   0.418 -10.814  0.00  0.00     0.305 C 
ATOM     30  N   UNL d   1     -53.587  -0.925 -11.236  0.00  0.00     0.088 N 
ATOM     31  C   UNL d   1     -54.686  -1.461 -10.459  0.00  0.00     0.310 C 
ATOM     32  C   UNL d   1     -52.397  -1.732 -11.142  0.00  0.00     0.298 C 
ATOM     33  C   UNL d   1     -51.350  -1.133 -10.255  0.00  0.00     0.198 C 
ATOM     34  O   UNL d   1     -50.908   0.109 -10.704  0.00  0.00    -0.380 OA
ENDBRANCH  27  28
ENDBRANCH  26  27
ENDBRANCH   2  26
TORSDOF 6
ENDMDL
MODEL 5
REMARK VINA RESULT:      -7.2      2.437      3.896
REMARK  6 active torsions:
REMARK  status: ('A' for Active; 'I' for Inactive)
REMARK    1  A    between atoms: O_2  and  C_3 
REMARK    2  A    between atoms: C_4  and  O_5 
REMARK    3  A    between atoms: O_5  and  C_6 
REMARK    4  A    between atoms: C_6  and  C_7 
REMARK    5  A    between atoms: C_21  and  N_22 
REMARK    6  A    between atoms: N_22  and  C_24 
ROOT
ATOM      1  C   UNL d   1     -50.089   0.406 -16.194  0.00  0.00     0.102 A 
ATOM      2  C   UNL d   1     -50.152  -0.701 -15.356  0.00  0.00     0.104 A 
ATOM      3  C   UNL d   1     -50.158  -1.973 -15.886  0.00  0.00     0.070 A 
ATOM      4  C   UNL d   1     -50.101  -2.125 -17.272  0.00  0.00     0.050 A 
ATOM      5  N   UNL d   1     -50.104  -3.342 -17.844  0.00  0.00    -0.351 N 
ATOM      6  HN  UNL d   1     -50.150  -4.172 -17.251  1.00  0.00     0.166 HD
ATOM      7  C   UNL d   1     -50.049  -3.490 -19.180  0.00  0.00     0.182 A 
ATOM      8  N   UNL d   1     -49.988  -2.422 -19.992  0.00  0.00    -0.338 N 
ATOM      9  HN  UNL d   1     -49.948  -2.564 -21.002  1.00  0.00     0.168 HD
ATOM     10  C   UNL d   1     -49.980  -1.178 -19.505  0.00  0.00     0.119 A 
ATOM     11  C   UNL d   1     -50.038  -1.040 -18.125  0.00  0.00     0.038 A 
ATOM     12  C   UNL d   1     -50.033   0.212 -17.559  0.00  0.00     0.057 A 
ENDROOT
BRANCH  10  13
ATOM     13  N   UNL d   1     -49.919  -0.005 -20.272  0.00  0.00    -0.337 N 
ATOM     14  HN  UNL d   1     -49.136   0.639 -20.158  1.00  0.00     0.167 HD
BRANCH  13  15
ATOM     15  C   UNL d   1     -50.933   0.282 -21.198  0.00  0.00     0.112 A 
ATOM     16  C   UNL d   1     -50.961  -0.256 -22.484  0.00  0.00     0.147 A 
ATOM     17  F   UNL d   1     -49.965  -1.098 -22.865  0.00  0.00    -0.204 F 
ATOM     18  C   UNL d   1     -52.006   0.078 -23.350  0.00  0.00     0.064 A 
ATOM     19  C   UNL d   1     -53.023   0.946 -22.943  0.00  0.00     0.017 A 
ATOM     20 BR   UNL d   1     -54.455   1.397 -24.149  0.00  0.00    -0.051 Br
ATOM     21  C   UNL d   1     -52.992   1.483 -21.656  0.00  0.00     0.064 A 
ATOM     22  C   UNL d   1     -51.950   1.150 -20.791  0.00  0.00     0.147 A 
ATOM     23  F   UNL d   1     -51.913   1.674 -19.525  0.00  0.00    -0.204 F 
ENDBRANCH  13  15
ENDBRANCH  10  13
BRANCH   1  24
ATOM     24  O   UNL d   1     -50.080   1.690 -15.698  0.00  0.00    -0.353 OA
ATOM     25  C   UNL d   1     -51.215   2.503 -15.923  0.00  0.00     0.210 C 
ENDBRANCH   1  24
BRANCH   2  26
ATOM     26  O   UNL d   1     -50.205  -0.436 -13.995  0.00  0.00    -0.346 OA
BRANCH  26  27
ATOM     27  C   UNL d   1     -51.195  -1.008 -13.191  0.00  0.00     0.209 C 
BRANCH  27  28
ATOM     28  C   UNL d   1     -50.813  -0.986 -11.717  0.00  0.00     0.174 C 
ATOM     29  C   UNL d   1     -51.848  -1.810 -10.979  0.00  0.00     0.305 C 
ATOM     30  N   UNL d   1     -52.204  -2.908 -11.857  0.00  0.00     0.088 N 
ATOM     31  C   UNL d   1     -52.969  -3.924 -11.161  0.00  0.00     0.310 C 
ATOM     32  C   UNL d   1     -50.983  -3.424 -12.423  0.00  0.00     0.298 C 
ATOM     33  C   UNL d   1     -49.766  -3.036 -11.642  0.00  0.00     0.198 C 
ATOM     34  O   UNL d   1     -49.580  -1.657 -11.583  0.00  0.00    -0.380 OA
ENDBRANCH  27  28
ENDBRANCH  26  27
ENDBRANCH   2  26
TORSDOF 6
ENDMDL
MODEL 6
REMARK VINA RESULT:      -7.1      2.689      3.586
REMARK  6 active torsions:
REMARK  status: ('A' for Active; 'I' for Inactive)
REMARK    1  A    between atoms: O_2  and  C_3 
REMARK    2  A    between atoms: C_4  and  O_5 
REMARK    3  A    between atoms: O_5  and  C_6 
REMARK    4  A    between atoms: C_6  and  C_7 
REMARK    5  A    between atoms: C_21  and  N_22 
REMARK    6  A    between atoms: N_22  and  C_24 
ROOT
ATOM      1  C   UNL d   1     -50.025   0.673 -16.883  0.00  0.00     0.102 A 
ATOM      2  C   UNL d   1     -50.995   1.423 -16.230  0.00  0.00     0.104 A 
ATOM      3  C   UNL d   1     -52.037   1.979 -16.940  0.00  0.00     0.070 A 
ATOM      4  C   UNL d   1     -52.096   1.775 -18.319  0.00  0.00     0.050 A 
ATOM      5  N   UNL d   1     -53.090   2.295 -19.062  0.00  0.00    -0.351 N 
ATOM      6  HN  UNL d   1     -53.816   2.850 -18.607  1.00  0.00     0.166 HD
ATOM      7  C   UNL d   1     -53.148   2.099 -20.391  0.00  0.00     0.182 A 
ATOM      8  N   UNL d   1     -52.211   1.375 -21.026  0.00  0.00    -0.338 N 
ATOM      9  HN  UNL d   1     -52.280   1.243 -22.035  1.00  0.00     0.168 HD
ATOM     10  C   UNL d   1     -51.191   0.824 -20.362  0.00  0.00     0.119 A 
ATOM     11  C   UNL d   1     -51.143   1.034 -18.991  0.00  0.00     0.038 A 
ATOM     12  C   UNL d   1     -50.120   0.495 -18.249  0.00  0.00     0.057 A 
ENDROOT
BRANCH  10  13
ATOM     13  N   UNL d   1     -50.169   0.055 -20.937  0.00  0.00    -0.337 N 
ATOM     14  HN  UNL d   1     -49.201   0.376 -20.892  1.00  0.00     0.167 HD
BRANCH  13  15
ATOM     15  C   UNL d   1     -50.475  -1.158 -21.572  0.00  0.00     0.112 A 
ATOM     16  C   UNL d   1     -50.465  -2.385 -20.910  0.00  0.00     0.147 A 
ATOM     17  F   UNL d   1     -50.146  -2.417 -19.589  0.00  0.00    -0.204 F 
ATOM     18  C   UNL d   1     -50.781  -3.551 -21.613  0.00  0.00     0.064 A 
ATOM     19  C   UNL d   1     -51.107  -3.504 -22.971  0.00  0.00     0.017 A 
ATOM     20 BR   UNL d   1     -51.540  -5.119 -23.924  0.00  0.00    -0.051 Br
ATOM     21  C   UNL d   1     -51.116  -2.274 -23.630  0.00  0.00     0.064 A 
ATOM     22  C   UNL d   1     -50.801  -1.109 -22.930  0.00  0.00     0.147 A 
ATOM     23  F   UNL d   1     -50.807   0.101 -23.572  0.00  0.00    -0.204 F 
ENDBRANCH  13  15
ENDBRANCH  10  13
BRANCH   1  24
ATOM     24  O   UNL d   1     -48.971   0.104 -16.205  0.00  0.00    -0.353 OA
ATOM     25  C   UNL d   1     -48.548  -1.190 -16.589  0.00  0.00     0.210 C 
ENDBRANCH   1  24
BRANCH   2  26
ATOM     26  O   UNL d   1     -50.840   1.562 -14.858  0.00  0.00    -0.346 OA
BRANCH  26  27
ATOM     27  C   UNL d   1     -51.029   2.799 -14.237  0.00  0.00     0.209 C 
BRANCH  27  28
ATOM     28  C   UNL d   1     -49.794   3.243 -13.464  0.00  0.00     0.174 C 
ATOM     29  C   UNL d   1     -49.993   4.702 -13.109  0.00  0.00     0.305 C 
ATOM     30  N   UNL d   1     -51.407   4.869 -12.828  0.00  0.00     0.088 N 
ATOM     31  C   UNL d   1     -51.681   6.146 -12.201  0.00  0.00     0.310 C 
ATOM     32  C   UNL d   1     -51.821   3.753 -12.015  0.00  0.00     0.298 C 
ATOM     33  C   UNL d   1     -50.677   3.058 -11.345  0.00  0.00     0.198 C 
ATOM     34  O   UNL d   1     -49.765   2.523 -12.252  0.00  0.00    -0.380 OA
ENDBRANCH  27  28
ENDBRANCH  26  27
ENDBRANCH   2  26
TORSDOF 6
ENDMDL
MODEL 7
REMARK VINA RESULT:      -7.0      4.382      9.022
REMARK  6 active torsions:
REMARK  status: ('A' for Active; 'I' for Inactive)
REMARK    1  A    between atoms: O_2  and  C_3 
REMARK    2  A    between atoms: C_4  and  O_5 
REMARK    3  A    between atoms: O_5  and  C_6 
REMARK    4  A    between atoms: C_6  and  C_7 
REMARK    5  A    between atoms: C_21  and  N_22 
REMARK    6  A    between atoms: N_22  and  C_24 
ROOT
ATOM      1  C   UNL d   1     -50.074  -0.636 -19.775  0.00  0.00     0.102 A 
ATOM      2  C   UNL d   1     -50.871   0.152 -20.597  0.00  0.00     0.104 A 
ATOM      3  C   UNL d   1     -51.651   1.151 -20.056  0.00  0.00     0.070 A 
ATOM      4  C   UNL d   1     -51.625   1.352 -18.675  0.00  0.00     0.050 A 
ATOM      5  N   UNL d   1     -52.366   2.311 -18.093  0.00  0.00    -0.351 N 
ATOM      6  HN  UNL d   1     -52.960   2.905 -18.673  1.00  0.00     0.166 HD
ATOM      7  C   UNL d   1     -52.342   2.506 -16.762  0.00  0.00     0.182 A 
ATOM      8  N   UNL d   1     -51.573   1.745 -15.965  0.00  0.00    -0.338 N 
ATOM      9  HN  UNL d   1     -51.575   1.915 -14.959  1.00  0.00     0.168 HD
ATOM     10  C   UNL d   1     -50.806   0.771 -16.463  0.00  0.00     0.119 A 
ATOM     11  C   UNL d   1     -50.841   0.581 -17.838  0.00  0.00     0.038 A 
ATOM     12  C   UNL d   1     -50.077  -0.405 -18.415  0.00  0.00     0.057 A 
ENDROOT
BRANCH  10  13
ATOM     13  N   UNL d   1     -49.974  -0.072 -15.713  0.00  0.00    -0.337 N 
ATOM     14  HN  UNL d   1     -48.968  -0.081 -15.884  1.00  0.00     0.167 HD
BRANCH  13  15
ATOM     15  C   UNL d   1     -50.523  -0.903 -14.725  0.00  0.00     0.112 A 
ATOM     16  C   UNL d   1     -50.878  -0.443 -13.457  0.00  0.00     0.147 A 
ATOM     17  F   UNL d   1     -50.686   0.868 -13.157  0.00  0.00    -0.204 F 
ATOM     18  C   UNL d   1     -51.419  -1.333 -12.526  0.00  0.00     0.064 A 
ATOM     19  C   UNL d   1     -51.610  -2.680 -12.849  0.00  0.00     0.017 A 
ATOM     20 BR   UNL d   1     -52.357  -3.894 -11.555  0.00  0.00    -0.051 Br
ATOM     21  C   UNL d   1     -51.254  -3.137 -14.119  0.00  0.00     0.064 A 
ATOM     22  C   UNL d   1     -50.714  -2.249 -15.049  0.00  0.00     0.147 A 
ATOM     23  F   UNL d   1     -50.362  -2.692 -16.297  0.00  0.00    -0.204 F 
ENDBRANCH  13  15
ENDBRANCH  10  13
BRANCH   1  24
ATOM     24  O   UNL d   1     -49.283  -1.641 -20.283  0.00  0.00    -0.353 OA
ATOM     25  C   UNL d   1     -48.919  -2.706 -19.425  0.00  0.00     0.210 C 
ENDBRANCH   1  24
BRANCH   2  26
ATOM     26  O   UNL d   1     -50.821  -0.133 -21.954  0.00  0.00    -0.346 OA
BRANCH  26  27
ATOM     27  C   UNL d   1     -51.967  -0.047 -22.747  0.00  0.00     0.209 C 
BRANCH  27  28
ATOM     28  C   UNL d   1     -51.742   0.819 -23.980  0.00  0.00     0.174 C 
ATOM     29  C   UNL d   1     -50.876   0.019 -24.931  0.00  0.00     0.305 C 
ATOM     30  N   UNL d   1     -51.289  -1.366 -24.799  0.00  0.00     0.088 N 
ATOM     31  C   UNL d   1     -50.740  -2.191 -25.856  0.00  0.00     0.310 C 
ATOM     32  C   UNL d   1     -52.730  -1.388 -24.771  0.00  0.00     0.298 C 
ATOM     33  C   UNL d   1     -53.346  -0.141 -25.325  0.00  0.00     0.198 C 
ATOM     34  O   UNL d   1     -52.990   1.000 -24.611  0.00  0.00    -0.380 OA
ENDBRANCH  27  28
ENDBRANCH  26  27
ENDBRANCH   2  26
TORSDOF 6
ENDMDL
MODEL 8
REMARK VINA RESULT:      -7.0      4.763      8.844
REMARK  6 active torsions:
REMARK  status: ('A' for Active; 'I' for Inactive)
REMARK    1  A    between atoms: O_2  and  C_3 
REMARK    2  A    between atoms: C_4  and  O_5 
REMARK    3  A    between atoms: O_5  and  C_6 
REMARK    4  A    between atoms: C_6  and  C_7 
REMARK    5  A    between atoms: C_21  and  N_22 
REMARK    6  A    between atoms: N_22  and  C_24 
ROOT
ATOM      1  C   UNL d   1     -50.632  -3.355 -23.806  0.00  0.00     0.102 A 
ATOM      2  C   UNL d   1     -50.196  -2.937 -25.057  0.00  0.00     0.104 A 
ATOM      3  C   UNL d   1     -50.398  -1.635 -25.462  0.00  0.00     0.070 A 
ATOM      4  C   UNL d   1     -51.044  -0.753 -24.596  0.00  0.00     0.050 A 
ATOM      5  N   UNL d   1     -51.267   0.528 -24.939  0.00  0.00    -0.351 N 
ATOM      6  HN  UNL d   1     -50.957   0.862 -25.853  1.00  0.00     0.166 HD
ATOM      7  C   UNL d   1     -51.891   1.380 -24.105  0.00  0.00     0.182 A 
ATOM      8  N   UNL d   1     -52.313   0.978 -22.894  0.00  0.00    -0.338 N 
ATOM      9  HN  UNL d   1     -52.784   1.645 -22.283  1.00  0.00     0.168 HD
ATOM     10  C   UNL d   1     -52.131  -0.278 -22.476  0.00  0.00     0.119 A 
ATOM     11  C   UNL d   1     -51.486  -1.146 -23.348  0.00  0.00     0.038 A 
ATOM     12  C   UNL d   1     -51.267  -2.451 -22.979  0.00  0.00     0.057 A 
ENDROOT
BRANCH  10  13
ATOM     13  N   UNL d   1     -52.536  -0.788 -21.235  0.00  0.00    -0.337 N 
ATOM     14  HN  UNL d   1     -53.257  -1.508 -21.189  1.00  0.00     0.167 HD
BRANCH  13  15
ATOM     15  C   UNL d   1     -51.950  -0.309 -20.054  0.00  0.00     0.112 A 
ATOM     16  C   UNL d   1     -50.839  -0.908 -19.460  0.00  0.00     0.147 A 
ATOM     17  F   UNL d   1     -50.294  -2.007 -20.047  0.00  0.00    -0.204 F 
ATOM     18  C   UNL d   1     -50.312  -0.373 -18.282  0.00  0.00     0.064 A 
ATOM     19  C   UNL d   1     -50.883   0.757 -17.690  0.00  0.00     0.017 A 
ATOM     20 BR   UNL d   1     -50.144   1.483 -16.067  0.00  0.00    -0.051 Br
ATOM     21  C   UNL d   1     -51.994   1.355 -18.286  0.00  0.00     0.064 A 
ATOM     22  C   UNL d   1     -52.522   0.821 -19.462  0.00  0.00     0.147 A 
ATOM     23  F   UNL d   1     -53.612   1.403 -20.052  0.00  0.00    -0.204 F 
ENDBRANCH  13  15
ENDBRANCH  10  13
BRANCH   1  24
ATOM     24  O   UNL d   1     -50.447  -4.648 -23.370  0.00  0.00    -0.353 OA
ATOM     25  C   UNL d   1     -50.311  -4.873 -21.981  0.00  0.00     0.210 C 
ENDBRANCH   1  24
BRANCH   2  26
ATOM     26  O   UNL d   1     -49.565  -3.895 -25.838  0.00  0.00    -0.346 OA
BRANCH  26  27
ATOM     27  C   UNL d   1     -48.235  -3.736 -26.232  0.00  0.00     0.209 C 
BRANCH  27  28
ATOM     28  C   UNL d   1     -47.387  -4.951 -25.877  0.00  0.00     0.174 C 
ATOM     29  C   UNL d   1     -45.943  -4.576 -26.139  0.00  0.00     0.305 C 
ATOM     30  N   UNL d   1     -45.808  -3.178 -25.775  0.00  0.00     0.088 N 
ATOM     31  C   UNL d   1     -44.418  -2.775 -25.706  0.00  0.00     0.310 C 
ATOM     32  C   UNL d   1     -46.502  -2.986 -24.526  0.00  0.00     0.298 C 
ATOM     33  C   UNL d   1     -46.731  -4.264 -23.780  0.00  0.00     0.198 C 
ATOM     34  O   UNL d   1     -47.512  -5.171 -24.490  0.00  0.00    -0.380 OA
ENDBRANCH  27  28
ENDBRANCH  26  27
ENDBRANCH   2  26
TORSDOF 6
ENDMDL
MODEL 9
REMARK VINA RESULT:      -6.8      2.238      2.857
REMARK  6 active torsions:
REMARK  status: ('A' for Active; 'I' for Inactive)
REMARK    1  A    between atoms: O_2  and  C_3 
REMARK    2  A    between atoms: C_4  and  O_5 
REMARK    3  A    between atoms: O_5  and  C_6 
REMARK    4  A    between atoms: C_6  and  C_7 
REMARK    5  A    between atoms: C_21  and  N_22 
REMARK    6  A    between atoms: N_22  and  C_24 
ROOT
ATOM      1  C   UNL d   1     -50.418   0.501 -16.836  0.00  0.00     0.102 A 
ATOM      2  C   UNL d   1     -51.389   1.292 -16.235  0.00  0.00     0.104 A 
ATOM      3  C   UNL d   1     -52.310   1.966 -17.007  0.00  0.00     0.070 A 
ATOM      4  C   UNL d   1     -52.247   1.840 -18.396  0.00  0.00     0.050 A 
ATOM      5  N   UNL d   1     -53.119   2.475 -19.197  0.00  0.00    -0.351 N 
ATOM      6  HN  UNL d   1     -53.844   3.063 -18.782  1.00  0.00     0.166 HD
ATOM      7  C   UNL d   1     -53.059   2.354 -20.536  0.00  0.00     0.182 A 
ATOM      8  N   UNL d   1     -52.120   1.590 -21.120  0.00  0.00    -0.338 N 
ATOM      9  HN  UNL d   1     -52.098   1.517 -22.137  1.00  0.00     0.168 HD
ATOM     10  C   UNL d   1     -51.216   0.925 -20.396  0.00  0.00     0.119 A 
ATOM     11  C   UNL d   1     -51.290   1.060 -19.016  0.00  0.00     0.038 A 
ATOM     12  C   UNL d   1     -50.389   0.402 -18.213  0.00  0.00     0.057 A 
ENDROOT
BRANCH  10  13
ATOM     13  N   UNL d   1     -50.202   0.107 -20.914  0.00  0.00    -0.337 N 
ATOM     14  HN  UNL d   1     -49.223   0.341 -20.751  1.00  0.00     0.167 HD
BRANCH  13  15
ATOM     15  C   UNL d   1     -50.534  -1.035 -21.658  0.00  0.00     0.112 A 
ATOM     16  C   UNL d   1     -50.867  -0.989 -23.012  0.00  0.00     0.147 A 
ATOM     17  F   UNL d   1     -50.874   0.213 -23.646  0.00  0.00    -0.204 F 
ATOM     18  C   UNL d   1     -51.187  -2.171 -23.685  0.00  0.00     0.064 A 
ATOM     19  C   UNL d   1     -51.178  -3.400 -23.019  0.00  0.00     0.017 A 
ATOM     20 BR   UNL d   1     -51.620  -5.020 -23.961  0.00  0.00    -0.051 Br
ATOM     21  C   UNL d   1     -50.843  -3.443 -21.665  0.00  0.00     0.064 A 
ATOM     22  C   UNL d   1     -50.524  -2.264 -20.992  0.00  0.00     0.147 A 
ATOM     23  F   UNL d   1     -50.195  -2.299 -19.662  0.00  0.00    -0.204 F 
ENDBRANCH  13  15
ENDBRANCH  10  13
BRANCH   1  24
ATOM     24  O   UNL d   1     -49.483  -0.186 -16.095  0.00  0.00    -0.353 OA
ATOM     25  C   UNL d   1     -49.651  -1.581 -15.932  0.00  0.00     0.210 C 
ENDBRANCH   1  24
BRANCH   2  26
ATOM     26  O   UNL d   1     -51.362   1.347 -14.849  0.00  0.00    -0.346 OA
BRANCH  26  27
ATOM     27  C   UNL d   1     -50.768   2.424 -14.186  0.00  0.00     0.209 C 
BRANCH  27  28
ATOM     28  C   UNL d   1     -50.839   2.268 -12.672  0.00  0.00     0.174 C 
ATOM     29  C   UNL d   1     -49.768   1.271 -12.280  0.00  0.00     0.305 C 
ATOM     30  N   UNL d   1     -48.642   1.504 -13.164  0.00  0.00     0.088 N 
ATOM     31  C   UNL d   1     -47.452   0.814 -12.710  0.00  0.00     0.310 C 
ATOM     32  C   UNL d   1     -48.453   2.930 -13.259  0.00  0.00     0.298 C 
ATOM     33  C   UNL d   1     -49.102   3.682 -12.138  0.00  0.00     0.198 C 
ATOM     34  O   UNL d   1     -50.482   3.504 -12.097  0.00  0.00    -0.380 OA
ENDBRANCH  27  28
ENDBRANCH  26  27
ENDBRANCH   2  26
TORSDOF 6
ENDMDL
