MODEL 1
REMARK VINA RESULT:      -7.8      0.000      0.000
REMARK  6 active torsions:
REMARK  status: ('A' for Active; 'I' for Inactive)
REMARK    1  A    between atoms: O_2  and  C_3 
REMARK    2  A    between atoms: C_4  and  O_5 
REMARK    3  A    between atoms: O_5  and  C_6 
REMARK    4  A    between atoms: C_6  and  C_7 
REMARK    5  A    between atoms: C_24  and  N_25 
REMARK    6  A    between atoms: N_25  and  C_27 
ROOT
ATOM      1  C   UNL d   1     -47.289  -3.398 -20.706  0.00  0.00     0.194 C 
ATOM      2  C   UNL d   1     -48.526  -3.908 -19.964  0.00  0.00     0.161 C 
ATOM      3  N   UNL d   1     -49.672  -3.587 -20.790  0.00  0.00    -0.359 N 
ATOM      4  C   UNL d   1     -50.919  -3.292 -20.127  0.00  0.00     0.152 C 
ATOM      5  C   UNL d   1     -49.598  -3.557 -22.226  0.00  0.00     0.206 C 
ATOM      6  C   UNL d   1     -50.782  -3.280 -22.994  0.00  0.00     0.138 C 
ATOM      7  N   UNL d   1     -51.762  -3.055 -23.606  0.00  0.00    -0.188 NA
ATOM      8  N   UNL d   1     -48.443  -3.785 -22.798  0.00  0.00    -0.241 N 
ATOM      9  HN  UNL d   1     -48.352  -3.773 -23.815  1.00  0.00     0.196 HD
ATOM     10  O   UNL d   1     -47.342  -4.047 -21.985  0.00  0.00    -0.269 OA
ENDROOT
BRANCH   1  11
ATOM     11  C   UNL d   1     -47.561  -1.937 -20.993  0.00  0.00     0.211 C 
BRANCH  11  12
ATOM     12  O   UNL d   1     -47.533  -1.141 -19.827  0.00  0.00    -0.346 OA
BRANCH  12  13
ATOM     13  C   UNL d   1     -48.671  -0.477 -19.394  0.00  0.00     0.104 A 
ATOM     14  C   UNL d   1     -48.985  -0.575 -18.040  0.00  0.00     0.102 A 
ATOM     15  C   UNL d   1     -50.115   0.080 -17.585  0.00  0.00     0.057 A 
ATOM     16  C   UNL d   1     -50.924   0.814 -18.432  0.00  0.00     0.038 A 
ATOM     17  C   UNL d   1     -52.052   1.465 -17.968  0.00  0.00     0.119 A 
ATOM     18  C   UNL d   1     -50.614   0.912 -19.777  0.00  0.00     0.050 A 
ATOM     19  N   UNL d   1     -52.815   2.170 -18.820  0.00  0.00    -0.338 N 
ATOM     20  C   UNL d   1     -52.523   2.270 -20.123  0.00  0.00     0.182 A 
ATOM     21  HN  UNL d   1     -53.644   2.644 -18.462  1.00  0.00     0.168 HD
ATOM     22  N   UNL d   1     -51.422   1.632 -20.561  0.00  0.00    -0.351 N 
ATOM     23  HN  UNL d   1     -51.190   1.702 -21.552  1.00  0.00     0.166 HD
ATOM     24  C   UNL d   1     -49.488   0.258 -20.217  0.00  0.00     0.070 A 
BRANCH  14  25
ATOM     25  O   UNL d   1     -48.175  -1.312 -17.185  0.00  0.00    -0.353 OA
ATOM     26  C   UNL d   1     -48.290  -1.093 -15.795  0.00  0.00     0.210 C 
ENDBRANCH  14  25
BRANCH  17  27
ATOM     27  N   UNL d   1     -52.343   1.344 -16.579  0.00  0.00    -0.342 N 
ATOM     28  HN  UNL d   1     -52.822   0.525 -16.203  1.00  0.00     0.167 HD
BRANCH  27  29
ATOM     29  C   UNL d   1     -51.932   2.426 -15.737  0.00  0.00     0.035 A 
ATOM     30  C   UNL d   1     -52.482   3.691 -15.936  0.00  0.00     0.055 A 
ATOM     31  C   UNL d   1     -52.106   4.761 -15.137  0.00  0.00     0.058 A 
ATOM     32 CL   UNL d   1     -52.776   6.348 -15.367  0.00  0.00    -0.082 Cl
ATOM     33  C   UNL d   1     -51.174   4.542 -14.140  0.00  0.00     0.055 A 
ATOM     34 CL   UNL d   1     -50.668   5.859 -13.109  0.00  0.00    -0.083 Cl
ATOM     35  C   UNL d   1     -50.609   3.290 -13.919  0.00  0.00     0.028 A 
ATOM     36  C   UNL d   1     -50.993   2.221 -14.726  0.00  0.00     0.031 A 
ENDBRANCH  27  29
ENDBRANCH  17  27
ENDBRANCH  12  13
ENDBRANCH  11  12
ENDBRANCH   1  11
TORSDOF 6
ENDMDL
MODEL 2
REMARK VINA RESULT:      -7.8      4.512      8.262
REMARK  6 active torsions:
REMARK  status: ('A' for Active; 'I' for Inactive)
REMARK    1  A    between atoms: O_2  and  C_3 
REMARK    2  A    between atoms: C_4  and  O_5 
REMARK    3  A    between atoms: O_5  and  C_6 
REMARK    4  A    between atoms: C_6  and  C_7 
REMARK    5  A    between atoms: C_24  and  N_25 
REMARK    6  A    between atoms: N_25  and  C_27 
ROOT
ATOM      1  C   UNL d   1     -50.151  -0.935 -13.584  0.00  0.00     0.194 C 
ATOM      2  C   UNL d   1     -49.929  -0.411 -12.165  0.00  0.00     0.161 C 
ATOM      3  N   UNL d   1     -51.232  -0.340 -11.536  0.00  0.00    -0.359 N 
ATOM      4  C   UNL d   1     -51.452   0.698 -10.558  0.00  0.00     0.152 C 
ATOM      5  C   UNL d   1     -52.289  -1.260 -11.856  0.00  0.00     0.206 C 
ATOM      6  C   UNL d   1     -53.546  -1.170 -11.163  0.00  0.00     0.138 C 
ATOM      7  N   UNL d   1     -54.567  -1.083 -10.583  0.00  0.00    -0.188 NA
ATOM      8  N   UNL d   1     -52.075  -2.163 -12.779  0.00  0.00    -0.241 N 
ATOM      9  HN  UNL d   1     -52.802  -2.834 -13.033  1.00  0.00     0.196 HD
ATOM     10  O   UNL d   1     -50.830  -2.187 -13.406  0.00  0.00    -0.269 OA
ENDROOT
BRANCH   1  11
ATOM     11  C   UNL d   1     -51.179  -0.013 -14.202  0.00  0.00     0.211 C 
BRANCH  11  12
ATOM     12  O   UNL d   1     -50.597   0.973 -15.029  0.00  0.00    -0.346 OA
BRANCH  12  13
ATOM     13  C   UNL d   1     -50.756   0.928 -16.406  0.00  0.00     0.104 A 
ATOM     14  C   UNL d   1     -49.796   0.227 -17.133  0.00  0.00     0.102 A 
ATOM     15  C   UNL d   1     -49.936   0.168 -18.506  0.00  0.00     0.057 A 
ATOM     16  C   UNL d   1     -50.988   0.781 -19.161  0.00  0.00     0.038 A 
ATOM     17  C   UNL d   1     -51.119   0.716 -20.536  0.00  0.00     0.119 A 
ATOM     18  C   UNL d   1     -51.942   1.478 -18.441  0.00  0.00     0.050 A 
ATOM     19  N   UNL d   1     -52.155   1.324 -21.138  0.00  0.00    -0.338 N 
ATOM     20  C   UNL d   1     -53.083   2.001 -20.449  0.00  0.00     0.182 A 
ATOM     21  HN  UNL d   1     -52.237   1.267 -22.153  1.00  0.00     0.168 HD
ATOM     22  N   UNL d   1     -52.944   2.055 -19.112  0.00  0.00    -0.351 N 
ATOM     23  HN  UNL d   1     -53.645   2.568 -18.578  1.00  0.00     0.166 HD
ATOM     24  C   UNL d   1     -51.794   1.529 -17.076  0.00  0.00     0.070 A 
BRANCH  14  25
ATOM     25  O   UNL d   1     -48.737  -0.391 -16.479  0.00  0.00    -0.353 OA
ATOM     26  C   UNL d   1     -48.358  -1.688 -16.890  0.00  0.00     0.210 C 
ENDBRANCH  14  25
BRANCH  17  27
ATOM     27  N   UNL d   1     -50.120  -0.008 -21.247  0.00  0.00    -0.342 N 
ATOM     28  HN  UNL d   1     -49.160   0.331 -21.315  1.00  0.00     0.167 HD
BRANCH  27  29
ATOM     29  C   UNL d   1     -50.528  -1.235 -21.862  0.00  0.00     0.035 A 
ATOM     30  C   UNL d   1     -51.088  -1.205 -23.138  0.00  0.00     0.055 A 
ATOM     31  C   UNL d   1     -51.493  -2.375 -23.762  0.00  0.00     0.058 A 
ATOM     32 CL   UNL d   1     -52.196  -2.362 -25.352  0.00  0.00    -0.082 Cl
ATOM     33  C   UNL d   1     -51.329  -3.571 -23.089  0.00  0.00     0.055 A 
ATOM     34 CL   UNL d   1     -51.825  -5.072 -23.834  0.00  0.00    -0.083 Cl
ATOM     35  C   UNL d   1     -50.772  -3.631 -21.815  0.00  0.00     0.028 A 
ATOM     36  C   UNL d   1     -50.367  -2.450 -21.196  0.00  0.00     0.031 A 
ENDBRANCH  27  29
ENDBRANCH  17  27
ENDBRANCH  12  13
ENDBRANCH  11  12
ENDBRANCH   1  11
TORSDOF 6
ENDMDL
MODEL 3
REMARK VINA RESULT:      -7.7      4.624      8.136
REMARK  6 active torsions:
REMARK  status: ('A' for Active; 'I' for Inactive)
REMARK    1  A    between atoms: O_2  and  C_3 
REMARK    2  A    between atoms: C_4  and  O_5 
REMARK    3  A    between atoms: O_5  and  C_6 
REMARK    4  A    between atoms: C_6  and  C_7 
REMARK    5  A    between atoms: C_24  and  N_25 
REMARK    6  A    between atoms: N_25  and  C_27 
ROOT
ATOM      1  C   UNL d   1     -51.794   0.231 -12.409  0.00  0.00     0.194 C 
ATOM      2  C   UNL d   1     -52.461  -0.938 -11.683  0.00  0.00     0.161 C 
ATOM      3  N   UNL d   1     -51.633  -2.104 -11.918  0.00  0.00    -0.359 N 
ATOM      4  C   UNL d   1     -52.286  -3.388 -11.993  0.00  0.00     0.152 C 
ATOM      5  C   UNL d   1     -50.208  -2.013 -12.076  0.00  0.00     0.206 C 
ATOM      6  C   UNL d   1     -49.434  -3.211 -12.259  0.00  0.00     0.138 C 
ATOM      7  N   UNL d   1     -48.816  -4.203 -12.404  0.00  0.00    -0.188 NA
ATOM      8  N   UNL d   1     -49.648  -0.830 -12.049  0.00  0.00    -0.241 N 
ATOM      9  HN  UNL d   1     -48.639  -0.726 -12.157  1.00  0.00     0.196 HD
ATOM     10  O   UNL d   1     -50.466   0.285 -11.867  0.00  0.00    -0.269 OA
ENDROOT
BRANCH   1  11
ATOM     11  C   UNL d   1     -51.618  -0.227 -13.841  0.00  0.00     0.211 C 
BRANCH  11  12
ATOM     12  O   UNL d   1     -50.723   0.591 -14.565  0.00  0.00    -0.346 OA
BRANCH  12  13
ATOM     13  C   UNL d   1     -50.803   0.679 -15.947  0.00  0.00     0.104 A 
ATOM     14  C   UNL d   1     -49.842  -0.013 -16.683  0.00  0.00     0.102 A 
ATOM     15  C   UNL d   1     -49.903   0.059 -18.061  0.00  0.00     0.057 A 
ATOM     16  C   UNL d   1     -50.879   0.791 -18.712  0.00  0.00     0.038 A 
ATOM     17  C   UNL d   1     -50.931   0.857 -20.093  0.00  0.00     0.119 A 
ATOM     18  C   UNL d   1     -51.833   1.479 -17.984  0.00  0.00     0.050 A 
ATOM     19  N   UNL d   1     -51.894   1.578 -20.691  0.00  0.00    -0.338 N 
ATOM     20  C   UNL d   1     -52.821   2.247 -19.994  0.00  0.00     0.182 A 
ATOM     21  HN  UNL d   1     -51.918   1.617 -21.710  1.00  0.00     0.168 HD
ATOM     22  N   UNL d   1     -52.759   2.174 -18.651  0.00  0.00    -0.351 N 
ATOM     23  HN  UNL d   1     -53.461   2.679 -18.111  1.00  0.00     0.166 HD
ATOM     24  C   UNL d   1     -51.763   1.399 -16.614  0.00  0.00     0.070 A 
BRANCH  14  25
ATOM     25  O   UNL d   1     -48.860  -0.750 -16.033  0.00  0.00    -0.353 OA
ATOM     26  C   UNL d   1     -49.004  -2.153 -15.969  0.00  0.00     0.210 C 
ENDBRANCH  14  25
BRANCH  17  27
ATOM     27  N   UNL d   1     -49.934   0.139 -20.813  0.00  0.00    -0.342 N 
ATOM     28  HN  UNL d   1     -48.957   0.434 -20.812  1.00  0.00     0.167 HD
BRANCH  27  29
ATOM     29  C   UNL d   1     -50.369  -1.016 -21.539  0.00  0.00     0.035 A 
ATOM     30  C   UNL d   1     -50.122  -2.284 -21.014  0.00  0.00     0.055 A 
ATOM     31  C   UNL d   1     -50.530  -3.422 -21.691  0.00  0.00     0.058 A 
ATOM     32 CL   UNL d   1     -50.232  -5.014 -21.058  0.00  0.00    -0.082 Cl
ATOM     33  C   UNL d   1     -51.188  -3.271 -22.898  0.00  0.00     0.055 A 
ATOM     34 CL   UNL d   1     -51.721  -4.676 -23.788  0.00  0.00    -0.083 Cl
ATOM     35  C   UNL d   1     -51.448  -2.018 -23.445  0.00  0.00     0.028 A 
ATOM     36  C   UNL d   1     -51.034  -0.879 -22.756  0.00  0.00     0.031 A 
ENDBRANCH  27  29
ENDBRANCH  17  27
ENDBRANCH  12  13
ENDBRANCH  11  12
ENDBRANCH   1  11
TORSDOF 6
ENDMDL
MODEL 4
REMARK VINA RESULT:      -7.7      4.369      7.670
REMARK  6 active torsions:
REMARK  status: ('A' for Active; 'I' for Inactive)
REMARK    1  A    between atoms: O_2  and  C_3 
REMARK    2  A    between atoms: C_4  and  O_5 
REMARK    3  A    between atoms: O_5  and  C_6 
REMARK    4  A    between atoms: C_6  and  C_7 
REMARK    5  A    between atoms: C_24  and  N_25 
REMARK    6  A    between atoms: N_25  and  C_27 
ROOT
ATOM      1  C   UNL d   1     -50.790   0.743 -14.952  0.00  0.00     0.194 C 
ATOM      2  C   UNL d   1     -50.827  -0.566 -14.162  0.00  0.00     0.161 C 
ATOM      3  N   UNL d   1     -50.038  -1.527 -14.906  0.00  0.00    -0.359 N 
ATOM      4  C   UNL d   1     -50.429  -2.914 -14.840  0.00  0.00     0.152 C 
ATOM      5  C   UNL d   1     -48.898  -1.139 -15.691  0.00  0.00     0.206 C 
ATOM      6  C   UNL d   1     -48.125  -2.145 -16.369  0.00  0.00     0.138 C 
ATOM      7  N   UNL d   1     -47.501  -2.982 -16.913  0.00  0.00    -0.188 NA
ATOM      8  N   UNL d   1     -48.594   0.132 -15.769  0.00  0.00    -0.241 N 
ATOM      9  HN  UNL d   1     -47.792   0.445 -16.317  1.00  0.00     0.196 HD
ATOM     10  O   UNL d   1     -49.393   1.046 -15.083  0.00  0.00    -0.269 OA
ENDROOT
BRANCH   1  11
ATOM     11  C   UNL d   1     -51.250   0.388 -16.349  0.00  0.00     0.211 C 
BRANCH  11  12
ATOM     12  O   UNL d   1     -50.877   1.358 -17.306  0.00  0.00    -0.346 OA
BRANCH  12  13
ATOM     13  C   UNL d   1     -51.189   1.188 -18.646  0.00  0.00     0.104 A 
ATOM     14  C   UNL d   1     -50.204   0.635 -19.462  0.00  0.00     0.102 A 
ATOM     15  C   UNL d   1     -50.493   0.456 -20.801  0.00  0.00     0.057 A 
ATOM     16  C   UNL d   1     -51.718   0.809 -21.338  0.00  0.00     0.038 A 
ATOM     17  C   UNL d   1     -51.997   0.626 -22.680  0.00  0.00     0.119 A 
ATOM     18  C   UNL d   1     -52.697   1.359 -20.530  0.00  0.00     0.050 A 
ATOM     19  N   UNL d   1     -53.198   0.981 -23.166  0.00  0.00    -0.338 N 
ATOM     20  C   UNL d   1     -54.153   1.513 -22.392  0.00  0.00     0.182 A 
ATOM     21  HN  UNL d   1     -53.389   0.840 -24.158  1.00  0.00     0.168 HD
ATOM     22  N   UNL d   1     -53.867   1.686 -21.088  0.00  0.00    -0.351 N 
ATOM     23  HN  UNL d   1     -54.587   2.090 -20.489  1.00  0.00     0.166 HD
ATOM     24  C   UNL d   1     -52.398   1.531 -19.200  0.00  0.00     0.070 A 
BRANCH  14  25
ATOM     25  O   UNL d   1     -48.972   0.279 -18.927  0.00  0.00    -0.353 OA
ATOM     26  C   UNL d   1     -48.175  -0.647 -19.634  0.00  0.00     0.210 C 
ENDBRANCH  14  25
BRANCH  17  27
ATOM     27  N   UNL d   1     -50.967   0.059 -23.483  0.00  0.00    -0.342 N 
ATOM     28  HN  UNL d   1     -50.323   0.643 -24.017  1.00  0.00     0.167 HD
BRANCH  27  29
ATOM     29  C   UNL d   1     -50.881  -1.370 -23.507  0.00  0.00     0.035 A 
ATOM     30  C   UNL d   1     -49.707  -1.989 -23.080  0.00  0.00     0.055 A 
ATOM     31  C   UNL d   1     -49.591  -3.370 -23.090  0.00  0.00     0.058 A 
ATOM     32 CL   UNL d   1     -48.136  -4.165 -22.565  0.00  0.00    -0.082 Cl
ATOM     33  C   UNL d   1     -50.665  -4.119 -23.532  0.00  0.00     0.055 A 
ATOM     34 CL   UNL d   1     -50.566  -5.863 -23.564  0.00  0.00    -0.083 Cl
ATOM     35  C   UNL d   1     -51.850  -3.528 -23.963  0.00  0.00     0.028 A 
ATOM     36  C   UNL d   1     -51.957  -2.138 -23.949  0.00  0.00     0.031 A 
ENDBRANCH  27  29
ENDBRANCH  17  27
ENDBRANCH  12  13
ENDBRANCH  11  12
ENDBRANCH   1  11
TORSDOF 6
ENDMDL
MODEL 5
REMARK VINA RESULT:      -7.5      4.732      8.025
REMARK  6 active torsions:
REMARK  status: ('A' for Active; 'I' for Inactive)
REMARK    1  A    between atoms: O_2  and  C_3 
REMARK    2  A    between atoms: C_4  and  O_5 
REMARK    3  A    between atoms: O_5  and  C_6 
REMARK    4  A    between atoms: C_6  and  C_7 
REMARK    5  A    between atoms: C_24  and  N_25 
REMARK    6  A    between atoms: N_25  and  C_27 
ROOT
ATOM      1  C   UNL d   1     -51.437  -0.756 -12.527  0.00  0.00     0.194 C 
ATOM      2  C   UNL d   1     -52.478  -1.457 -11.653  0.00  0.00     0.161 C 
ATOM      3  N   UNL d   1     -51.994  -2.804 -11.424  0.00  0.00    -0.359 N 
ATOM      4  C   UNL d   1     -52.972  -3.854 -11.277  0.00  0.00     0.152 C 
ATOM      5  C   UNL d   1     -50.593  -3.112 -11.342  0.00  0.00     0.206 C 
ATOM      6  C   UNL d   1     -50.175  -4.460 -11.065  0.00  0.00     0.138 C 
ATOM      7  N   UNL d   1     -49.851  -5.567 -10.834  0.00  0.00    -0.188 NA
ATOM      8  N   UNL d   1     -49.728  -2.146 -11.524  0.00  0.00    -0.241 N 
ATOM      9  HN  UNL d   1     -48.724  -2.326 -11.473  1.00  0.00     0.196 HD
ATOM     10  O   UNL d   1     -50.211  -0.865 -11.788  0.00  0.00    -0.269 OA
ENDROOT
BRANCH   1  11
ATOM     11  C   UNL d   1     -51.251  -1.650 -13.734  0.00  0.00     0.211 C 
BRANCH  11  12
ATOM     12  O   UNL d   1     -50.094  -1.326 -14.476  0.00  0.00    -0.346 OA
BRANCH  12  13
ATOM     13  C   UNL d   1     -50.125  -1.297 -15.862  0.00  0.00     0.104 A 
ATOM     14  C   UNL d   1     -50.177  -0.043 -16.468  0.00  0.00     0.102 A 
ATOM     15  C   UNL d   1     -50.208   0.011 -17.848  0.00  0.00     0.057 A 
ATOM     16  C   UNL d   1     -50.189  -1.132 -18.625  0.00  0.00     0.038 A 
ATOM     17  C   UNL d   1     -50.221  -1.067 -20.006  0.00  0.00     0.119 A 
ATOM     18  C   UNL d   1     -50.138  -2.378 -18.025  0.00  0.00     0.050 A 
ATOM     19  N   UNL d   1     -50.202  -2.200 -20.729  0.00  0.00    -0.338 N 
ATOM     20  C   UNL d   1     -50.152  -3.410 -20.157  0.00  0.00     0.182 A 
ATOM     21  HN  UNL d   1     -50.226  -2.135 -21.746  1.00  0.00     0.168 HD
ATOM     22  N   UNL d   1     -50.122  -3.458 -18.812  0.00  0.00    -0.351 N 
ATOM     23  HN  UNL d   1     -50.084  -4.375 -18.366  1.00  0.00     0.166 HD
ATOM     24  C   UNL d   1     -50.107  -2.419 -16.652  0.00  0.00     0.070 A 
BRANCH  14  25
ATOM     25  O   UNL d   1     -50.195   1.109 -15.691  0.00  0.00    -0.353 OA
ATOM     26  C   UNL d   1     -51.408   1.823 -15.577  0.00  0.00     0.210 C 
ENDBRANCH  14  25
BRANCH  17  27
ATOM     27  N   UNL d   1     -50.274   0.230 -20.592  0.00  0.00    -0.342 N 
ATOM     28  HN  UNL d   1     -49.533   0.915 -20.442  1.00  0.00     0.167 HD
BRANCH  27  29
ATOM     29  C   UNL d   1     -51.418   0.526 -21.401  0.00  0.00     0.035 A 
ATOM     30  C   UNL d   1     -51.379   0.244 -22.765  0.00  0.00     0.055 A 
ATOM     31  C   UNL d   1     -52.469   0.519 -23.576  0.00  0.00     0.058 A 
ATOM     32 CL   UNL d   1     -52.445   0.178 -25.280  0.00  0.00    -0.082 Cl
ATOM     33  C   UNL d   1     -53.595   1.078 -23.000  0.00  0.00     0.055 A 
ATOM     34 CL   UNL d   1     -54.994   1.442 -23.981  0.00  0.00    -0.083 Cl
ATOM     35  C   UNL d   1     -53.661   1.369 -21.640  0.00  0.00     0.028 A 
ATOM     36  C   UNL d   1     -52.560   1.089 -20.833  0.00  0.00     0.031 A 
ENDBRANCH  27  29
ENDBRANCH  17  27
ENDBRANCH  12  13
ENDBRANCH  11  12
ENDBRANCH   1  11
TORSDOF 6
ENDMDL
MODEL 6
REMARK VINA RESULT:      -7.3      1.390      2.307
REMARK  6 active torsions:
REMARK  status: ('A' for Active; 'I' for Inactive)
REMARK    1  A    between atoms: O_2  and  C_3 
REMARK    2  A    between atoms: C_4  and  O_5 
REMARK    3  A    between atoms: O_5  and  C_6 
REMARK    4  A    between atoms: C_6  and  C_7 
REMARK    5  A    between atoms: C_24  and  N_25 
REMARK    6  A    between atoms: N_25  and  C_27 
ROOT
ATOM      1  C   UNL d   1     -48.370  -2.354 -22.444  0.00  0.00     0.194 C 
ATOM      2  C   UNL d   1     -47.558  -3.436 -23.158  0.00  0.00     0.161 C 
ATOM      3  N   UNL d   1     -47.720  -4.654 -22.391  0.00  0.00    -0.359 N 
ATOM      4  C   UNL d   1     -46.617  -5.585 -22.365  0.00  0.00     0.152 C 
ATOM      5  C   UNL d   1     -48.927  -4.953 -21.671  0.00  0.00     0.206 C 
ATOM      6  C   UNL d   1     -49.047  -6.202 -20.967  0.00  0.00     0.138 C 
ATOM      7  N   UNL d   1     -49.128  -7.230 -20.400  0.00  0.00    -0.188 NA
ATOM      8  N   UNL d   1     -49.894  -4.070 -21.676  0.00  0.00    -0.241 N 
ATOM      9  HN  UNL d   1     -50.767  -4.247 -21.176  1.00  0.00     0.196 HD
ATOM     10  O   UNL d   1     -49.703  -2.883 -22.382  0.00  0.00    -0.269 OA
ENDROOT
BRANCH   1  11
ATOM     11  C   UNL d   1     -47.878  -2.353 -21.013  0.00  0.00     0.211 C 
BRANCH  11  12
ATOM     12  O   UNL d   1     -47.750  -1.050 -20.484  0.00  0.00    -0.346 OA
BRANCH  12  13
ATOM     13  C   UNL d   1     -48.837  -0.410 -19.907  0.00  0.00     0.104 A 
ATOM     14  C   UNL d   1     -48.964  -0.501 -18.522  0.00  0.00     0.102 A 
ATOM     15  C   UNL d   1     -50.039   0.129 -17.925  0.00  0.00     0.057 A 
ATOM     16  C   UNL d   1     -50.973   0.835 -18.661  0.00  0.00     0.038 A 
ATOM     17  C   UNL d   1     -52.046   1.462 -18.054  0.00  0.00     0.119 A 
ATOM     18  C   UNL d   1     -50.849   0.926 -20.036  0.00  0.00     0.050 A 
ATOM     19  N   UNL d   1     -52.934   2.139 -18.801  0.00  0.00    -0.338 N 
ATOM     20  C   UNL d   1     -52.822   2.233 -20.132  0.00  0.00     0.182 A 
ATOM     21  HN  UNL d   1     -53.720   2.596 -18.338  1.00  0.00     0.168 HD
ATOM     22  N   UNL d   1     -51.773   1.618 -20.710  0.00  0.00    -0.351 N 
ATOM     23  HN  UNL d   1     -51.678   1.683 -21.723  1.00  0.00     0.166 HD
ATOM     24  C   UNL d   1     -49.776   0.296 -20.618  0.00  0.00     0.070 A 
BRANCH  14  25
ATOM     25  O   UNL d   1     -48.028  -1.209 -17.779  0.00  0.00    -0.353 OA
ATOM     26  C   UNL d   1     -48.456  -2.356 -17.076  0.00  0.00     0.210 C 
ENDBRANCH  14  25
BRANCH  17  27
ATOM     27  N   UNL d   1     -52.145   1.348 -16.638  0.00  0.00    -0.342 N 
ATOM     28  HN  UNL d   1     -52.341   0.455 -16.186  1.00  0.00     0.167 HD
BRANCH  27  29
ATOM     29  C   UNL d   1     -51.956   2.548 -15.879  0.00  0.00     0.035 A 
ATOM     30  C   UNL d   1     -51.156   2.514 -14.738  0.00  0.00     0.055 A 
ATOM     31  C   UNL d   1     -50.953   3.659 -13.982  0.00  0.00     0.058 A 
ATOM     32 CL   UNL d   1     -49.962   3.642 -12.554  0.00  0.00    -0.082 Cl
ATOM     33  C   UNL d   1     -51.562   4.832 -14.386  0.00  0.00     0.055 A 
ATOM     34 CL   UNL d   1     -51.336   6.300 -13.465  0.00  0.00    -0.083 Cl
ATOM     35  C   UNL d   1     -52.365   4.895 -15.521  0.00  0.00     0.028 A 
ATOM     36  C   UNL d   1     -52.563   3.740 -16.275  0.00  0.00     0.031 A 
ENDBRANCH  27  29
ENDBRANCH  17  27
ENDBRANCH  12  13
ENDBRANCH  11  12
ENDBRANCH   1  11
TORSDOF 6
ENDMDL
MODEL 7
REMARK VINA RESULT:      -7.2      4.235      7.923
REMARK  6 active torsions:
REMARK  status: ('A' for Active; 'I' for Inactive)
REMARK    1  A    between atoms: O_2  and  C_3 
REMARK    2  A    between atoms: C_4  and  O_5 
REMARK    3  A    between atoms: O_5  and  C_6 
REMARK    4  A    between atoms: C_6  and  C_7 
REMARK    5  A    between atoms: C_24  and  N_25 
REMARK    6  A    between atoms: N_25  and  C_27 
ROOT
ATOM      1  C   UNL d   1     -49.957   1.506 -13.232  0.00  0.00     0.194 C 
ATOM      2  C   UNL d   1     -50.843   1.100 -12.053  0.00  0.00     0.161 C 
ATOM      3  N   UNL d   1     -51.416  -0.189 -12.384  0.00  0.00    -0.359 N 
ATOM      4  C   UNL d   1     -52.735  -0.488 -11.880  0.00  0.00     0.152 C 
ATOM      5  C   UNL d   1     -50.717  -1.156 -13.184  0.00  0.00     0.206 C 
ATOM      6  C   UNL d   1     -51.318  -2.438 -13.438  0.00  0.00     0.138 C 
ATOM      7  N   UNL d   1     -51.823  -3.483 -13.633  0.00  0.00    -0.188 NA
ATOM      8  N   UNL d   1     -49.541  -0.840 -13.664  0.00  0.00    -0.241 N 
ATOM      9  HN  UNL d   1     -49.014  -1.501 -14.237  1.00  0.00     0.196 HD
ATOM     10  O   UNL d   1     -49.025   0.423 -13.374  0.00  0.00    -0.269 OA
ENDROOT
BRANCH   1  11
ATOM     11  C   UNL d   1     -50.845   1.425 -14.455  0.00  0.00     0.211 C 
BRANCH  11  12
ATOM     12  O   UNL d   1     -50.110   1.430 -15.661  0.00  0.00    -0.346 OA
BRANCH  12  13
ATOM     13  C   UNL d   1     -50.683   0.984 -16.842  0.00  0.00     0.104 A 
ATOM     14  C   UNL d   1     -50.371  -0.312 -17.249  0.00  0.00     0.102 A 
ATOM     15  C   UNL d   1     -50.932  -0.777 -18.423  0.00  0.00     0.057 A 
ATOM     16  C   UNL d   1     -51.778   0.003 -19.188  0.00  0.00     0.038 A 
ATOM     17  C   UNL d   1     -52.334  -0.472 -20.362  0.00  0.00     0.119 A 
ATOM     18  C   UNL d   1     -52.089   1.290 -18.787  0.00  0.00     0.050 A 
ATOM     19  N   UNL d   1     -53.153   0.314 -21.080  0.00  0.00    -0.338 N 
ATOM     20  C   UNL d   1     -53.459   1.561 -20.699  0.00  0.00     0.182 A 
ATOM     21  HN  UNL d   1     -53.555  -0.051 -21.943  1.00  0.00     0.168 HD
ATOM     22  N   UNL d   1     -52.912   2.011 -19.554  0.00  0.00    -0.351 N 
ATOM     23  HN  UNL d   1     -53.139   2.959 -19.255  1.00  0.00     0.166 HD
ATOM     24  C   UNL d   1     -51.527   1.742 -17.617  0.00  0.00     0.070 A 
BRANCH  14  25
ATOM     25  O   UNL d   1     -49.521  -1.099 -16.483  0.00  0.00    -0.353 OA
ATOM     26  C   UNL d   1     -48.232  -1.383 -16.987  0.00  0.00     0.210 C 
ENDBRANCH  14  25
BRANCH  17  27
ATOM     27  N   UNL d   1     -51.994  -1.800 -20.747  0.00  0.00    -0.342 N 
ATOM     28  HN  UNL d   1     -52.338  -2.611 -20.232  1.00  0.00     0.167 HD
BRANCH  27  29
ATOM     29  C   UNL d   1     -51.145  -1.943 -21.892  0.00  0.00     0.035 A 
ATOM     30  C   UNL d   1     -49.772  -2.094 -21.708  0.00  0.00     0.055 A 
ATOM     31  C   UNL d   1     -48.923  -2.235 -22.795  0.00  0.00     0.058 A 
ATOM     32 CL   UNL d   1     -47.207  -2.424 -22.591  0.00  0.00    -0.082 Cl
ATOM     33  C   UNL d   1     -49.470  -2.221 -24.064  0.00  0.00     0.055 A 
ATOM     34 CL   UNL d   1     -48.440  -2.394 -25.465  0.00  0.00    -0.083 Cl
ATOM     35  C   UNL d   1     -50.837  -2.072 -24.277  0.00  0.00     0.028 A 
ATOM     36  C   UNL d   1     -51.683  -1.932 -23.179  0.00  0.00     0.031 A 
ENDBRANCH  27  29
ENDBRANCH  17  27
ENDBRANCH  12  13
ENDBRANCH  11  12
ENDBRANCH   1  11
TORSDOF 6
ENDMDL
MODEL 8
REMARK VINA RESULT:      -7.0      4.475      8.932
REMARK  6 active torsions:
REMARK  status: ('A' for Active; 'I' for Inactive)
REMARK    1  A    between atoms: O_2  and  C_3 
REMARK    2  A    between atoms: C_4  and  O_5 
REMARK    3  A    between atoms: O_5  and  C_6 
REMARK    4  A    between atoms: C_6  and  C_7 
REMARK    5  A    between atoms: C_24  and  N_25 
REMARK    6  A    between atoms: N_25  and  C_27 
ROOT
ATOM      1  C   UNL d   1     -49.362   2.699 -13.849  0.00  0.00     0.194 C 
ATOM      2  C   UNL d   1     -49.631   3.977 -13.052  0.00  0.00     0.161 C 
ATOM      3  N   UNL d   1     -50.875   3.771 -12.338  0.00  0.00    -0.359 N 
ATOM      4  C   UNL d   1     -51.713   4.921 -12.102  0.00  0.00     0.152 C 
ATOM      5  C   UNL d   1     -51.285   2.476 -11.869  0.00  0.00     0.206 C 
ATOM      6  C   UNL d   1     -52.507   2.342 -11.124  0.00  0.00     0.138 C 
ATOM      7  N   UNL d   1     -53.509   2.252 -10.512  0.00  0.00    -0.188 NA
ATOM      8  N   UNL d   1     -50.525   1.443 -12.138  0.00  0.00    -0.241 N 
ATOM      9  HN  UNL d   1     -50.783   0.508 -11.821  1.00  0.00     0.196 HD
ATOM     10  O   UNL d   1     -49.355   1.654 -12.865  0.00  0.00    -0.269 OA
ENDROOT
BRANCH   1  11
ATOM     11  C   UNL d   1     -50.612   2.461 -14.669  0.00  0.00     0.211 C 
BRANCH  11  12
ATOM     12  O   UNL d   1     -50.612   1.199 -15.303  0.00  0.00    -0.346 OA
BRANCH  12  13
ATOM     13  C   UNL d   1     -50.847   1.090 -16.665  0.00  0.00     0.104 A 
ATOM     14  C   UNL d   1     -49.956   0.310 -17.401  0.00  0.00     0.102 A 
ATOM     15  C   UNL d   1     -50.171   0.187 -18.761  0.00  0.00     0.057 A 
ATOM     16  C   UNL d   1     -51.231   0.809 -19.393  0.00  0.00     0.038 A 
ATOM     17  C   UNL d   1     -51.437   0.679 -20.754  0.00  0.00     0.119 A 
ATOM     18  C   UNL d   1     -52.117   1.583 -18.664  0.00  0.00     0.050 A 
ATOM     19  N   UNL d   1     -52.479   1.298 -21.334  0.00  0.00    -0.338 N 
ATOM     20  C   UNL d   1     -53.341   2.049 -20.637  0.00  0.00     0.182 A 
ATOM     21  HN  UNL d   1     -52.617   1.192 -22.339  1.00  0.00     0.168 HD
ATOM     22  N   UNL d   1     -53.129   2.167 -19.313  0.00  0.00    -0.351 N 
ATOM     23  HN  UNL d   1     -53.779   2.737 -18.772  1.00  0.00     0.166 HD
ATOM     24  C   UNL d   1     -51.894   1.698 -17.313  0.00  0.00     0.070 A 
BRANCH  14  25
ATOM     25  O   UNL d   1     -48.889  -0.317 -16.770  0.00  0.00    -0.353 OA
ATOM     26  C   UNL d   1     -48.989  -1.699 -16.496  0.00  0.00     0.210 C 
ENDBRANCH  14  25
BRANCH  17  27
ATOM     27  N   UNL d   1     -50.508  -0.124 -21.475  0.00  0.00    -0.342 N 
ATOM     28  HN  UNL d   1     -49.570  -0.308 -21.117  1.00  0.00     0.167 HD
BRANCH  27  29
ATOM     29  C   UNL d   1     -50.953  -0.659 -22.727  0.00  0.00     0.035 A 
ATOM     30  C   UNL d   1     -51.153  -2.033 -22.847  0.00  0.00     0.055 A 
ATOM     31  C   UNL d   1     -51.583  -2.583 -24.045  0.00  0.00     0.058 A 
ATOM     32 CL   UNL d   1     -51.839  -4.294 -24.221  0.00  0.00    -0.082 Cl
ATOM     33  C   UNL d   1     -51.809  -1.738 -25.115  0.00  0.00     0.055 A 
ATOM     34 CL   UNL d   1     -52.351  -2.385 -26.645  0.00  0.00    -0.083 Cl
ATOM     35  C   UNL d   1     -51.617  -0.362 -25.022  0.00  0.00     0.028 A 
ATOM     36  C   UNL d   1     -51.185   0.182 -23.814  0.00  0.00     0.031 A 
ENDBRANCH  27  29
ENDBRANCH  17  27
ENDBRANCH  12  13
ENDBRANCH  11  12
ENDBRANCH   1  11
TORSDOF 6
ENDMDL
MODEL 9
REMARK VINA RESULT:      -7.0      4.443      8.445
REMARK  6 active torsions:
REMARK  status: ('A' for Active; 'I' for Inactive)
REMARK    1  A    between atoms: O_2  and  C_3 
REMARK    2  A    between atoms: C_4  and  O_5 
REMARK    3  A    between atoms: O_5  and  C_6 
REMARK    4  A    between atoms: C_6  and  C_7 
REMARK    5  A    between atoms: C_24  and  N_25 
REMARK    6  A    between atoms: N_25  and  C_27 
ROOT
ATOM      1  C   UNL d   1     -50.735   2.586 -13.780  0.00  0.00     0.194 C 
ATOM      2  C   UNL d   1     -50.492   1.344 -12.922  0.00  0.00     0.161 C 
ATOM      3  N   UNL d   1     -49.090   1.006 -13.062  0.00  0.00    -0.359 N 
ATOM      4  C   UNL d   1     -48.723  -0.388 -12.990  0.00  0.00     0.152 C 
ATOM      5  C   UNL d   1     -48.077   2.005 -13.267  0.00  0.00     0.206 C 
ATOM      6  C   UNL d   1     -46.696   1.612 -13.350  0.00  0.00     0.138 C 
ATOM      7  N   UNL d   1     -45.571   1.273 -13.413  0.00  0.00    -0.188 NA
ATOM      8  N   UNL d   1     -48.445   3.257 -13.373  0.00  0.00    -0.241 N 
ATOM      9  HN  UNL d   1     -47.754   3.994 -13.519  1.00  0.00     0.196 HD
ATOM     10  O   UNL d   1     -49.803   3.558 -13.281  0.00  0.00    -0.269 OA
ENDROOT
BRANCH   1  11
ATOM     11  C   UNL d   1     -50.234   2.231 -15.162  0.00  0.00     0.211 C 
BRANCH  11  12
ATOM     12  O   UNL d   1     -50.914   1.125 -15.718  0.00  0.00    -0.346 OA
BRANCH  12  13
ATOM     13  C   UNL d   1     -51.095   1.019 -17.089  0.00  0.00     0.104 A 
ATOM     14  C   UNL d   1     -50.108   0.347 -17.808  0.00  0.00     0.102 A 
ATOM     15  C   UNL d   1     -50.268   0.229 -19.176  0.00  0.00     0.057 A 
ATOM     16  C   UNL d   1     -51.365   0.756 -19.832  0.00  0.00     0.038 A 
ATOM     17  C   UNL d   1     -51.516   0.632 -21.201  0.00  0.00     0.119 A 
ATOM     18  C   UNL d   1     -52.346   1.424 -19.119  0.00  0.00     0.050 A 
ATOM     19  N   UNL d   1     -52.596   1.156 -21.804  0.00  0.00    -0.338 N 
ATOM     20  C   UNL d   1     -53.549   1.804 -21.123  0.00  0.00     0.182 A 
ATOM     21  HN  UNL d   1     -52.692   1.057 -22.815  1.00  0.00     0.168 HD
ATOM     22  N   UNL d   1     -53.390   1.917 -19.791  0.00  0.00    -0.351 N 
ATOM     23  HN  UNL d   1     -54.111   2.408 -19.262  1.00  0.00     0.166 HD
ATOM     24  C   UNL d   1     -52.177   1.534 -17.760  0.00  0.00     0.070 A 
BRANCH  14  25
ATOM     25  O   UNL d   1     -49.004  -0.183 -17.153  0.00  0.00    -0.353 OA
ATOM     26  C   UNL d   1     -48.213  -1.135 -17.833  0.00  0.00     0.210 C 
ENDBRANCH  14  25
BRANCH  17  27
ATOM     27  N   UNL d   1     -50.489  -0.060 -21.904  0.00  0.00    -0.342 N 
ATOM     28  HN  UNL d   1     -49.561   0.345 -22.032  1.00  0.00     0.167 HD
BRANCH  27  29
ATOM     29  C   UNL d   1     -50.822  -1.352 -22.425  0.00  0.00     0.035 A 
ATOM     30  C   UNL d   1     -50.428  -2.491 -21.724  0.00  0.00     0.055 A 
ATOM     31  C   UNL d   1     -50.734  -3.756 -22.201  0.00  0.00     0.058 A 
ATOM     32 CL   UNL d   1     -50.252  -5.191 -21.346  0.00  0.00    -0.082 Cl
ATOM     33  C   UNL d   1     -51.439  -3.861 -23.385  0.00  0.00     0.055 A 
ATOM     34 CL   UNL d   1     -51.848  -5.435 -24.025  0.00  0.00    -0.083 Cl
ATOM     35  C   UNL d   1     -51.846  -2.741 -24.105  0.00  0.00     0.028 A 
ATOM     36  C   UNL d   1     -51.533  -1.473 -23.618  0.00  0.00     0.031 A 
ENDBRANCH  27  29
ENDBRANCH  17  27
ENDBRANCH  12  13
ENDBRANCH  11  12
ENDBRANCH   1  11
TORSDOF 6
ENDMDL
