MODEL 1
REMARK VINA RESULT:      -9.0      0.000      0.000
REMARK  8 active torsions:
REMARK  status: ('A' for Active; 'I' for Inactive)
REMARK    1  A    between atoms: O_2  and  C_3 
REMARK    2  A    between atoms: C_4  and  O_5 
REMARK    3  A    between atoms: O_5  and  C_6 
REMARK    4  A    between atoms: C_6  and  C_7 
REMARK    5  A    between atoms: N_9  and  C_10 
REMARK    6  A    between atoms: C_10  and  C_11 
REMARK    7  A    between atoms: C_30  and  N_31 
REMARK    8  A    between atoms: N_31  and  C_33 
ROOT
ATOM      1  C   UNL d   1     -48.979  -0.553 -18.125  0.00  0.00     0.102 A 
ATOM      2  C   UNL d   1     -48.632  -0.511 -19.454  0.00  0.00     0.104 A 
ATOM      3  C   UNL d   1     -49.468   0.203 -20.299  0.00  0.00     0.070 A 
ATOM      4  C   UNL d   1     -50.578   0.826 -19.806  0.00  0.00     0.050 A 
ATOM      5  N   UNL d   1     -51.379   1.511 -20.620  0.00  0.00    -0.351 N 
ATOM      6  HN  UNL d   1     -51.139   1.554 -21.610  1.00  0.00     0.166 HD
ATOM      7  C   UNL d   1     -52.488   2.149 -20.205  0.00  0.00     0.182 A 
ATOM      8  N   UNL d   1     -52.783   2.075 -18.893  0.00  0.00    -0.338 N 
ATOM      9  HN  UNL d   1     -53.621   2.553 -18.561  1.00  0.00     0.168 HD
ATOM     10  C   UNL d   1     -52.037   1.409 -17.997  0.00  0.00     0.119 A 
ATOM     11  C   UNL d   1     -50.908   0.770 -18.466  0.00  0.00     0.038 A 
ATOM     12  C   UNL d   1     -50.097   0.070 -17.606  0.00  0.00     0.057 A 
ENDROOT
BRANCH   2  13
ATOM     13  O   UNL d   1     -47.502  -1.164 -19.856  0.00  0.00    -0.346 OA
BRANCH  13  14
ATOM     14  C   UNL d   1     -47.071  -1.373 -21.170  0.00  0.00     0.202 C 
BRANCH  14  15
ATOM     15  C   UNL d   1     -47.402  -2.777 -21.664  0.00  0.00     0.137 C 
ATOM     16  C   UNL d   1     -48.713  -2.671 -22.393  0.00  0.00     0.300 C 
ATOM     17  N   UNL d   1     -49.136  -3.927 -22.927  0.00  0.00     0.102 N 
ATOM     18  C   UNL d   1     -48.630  -5.090 -22.272  0.00  0.00     0.375 C 
ATOM     19  C   UNL d   1     -48.336  -4.870 -20.832  0.00  0.00     0.246 C 
ATOM     20  O   UNL d   1     -48.652  -5.711 -19.934  0.00  0.00    -0.272 OA
ATOM     21  N   UNL d   1     -47.669  -3.641 -20.504  0.00  0.00    -0.351 N 
ATOM     22  HN  UNL d   1     -47.405  -3.390 -19.551  1.00  0.00     0.163 HD
BRANCH  17  23
ATOM     23  C   UNL d   1     -50.587  -3.963 -23.019  0.00  0.00     0.300 C 
BRANCH  23  24
ATOM     24  C   UNL d   1     -51.008  -3.494 -24.355  0.00  0.00     0.006 C 
ATOM     25  C   UNL d   1     -51.609  -2.344 -24.613  0.00  0.00    -0.082 C 
ATOM     26  C   UNL d   1     -51.877  -1.364 -23.524  0.00  0.00     0.034 C 
ATOM     27  C   UNL d   1     -51.996  -2.091 -26.036  0.00  0.00     0.034 C 
ATOM     28  C   UNL d   1     -51.350  -0.018 -23.964  0.00  0.00     0.004 C 
ATOM     29  C   UNL d   1     -50.980   0.038 -25.418  0.00  0.00     0.001 C 
ATOM     30  C   UNL d   1     -52.015  -0.603 -26.313  0.00  0.00     0.004 C 
ENDBRANCH  23  24
ENDBRANCH  17  23
ENDBRANCH  14  15
ENDBRANCH  13  14
ENDBRANCH   2  13
BRANCH   1  31
ATOM     31  O   UNL d   1     -48.165  -1.262 -17.229  0.00  0.00    -0.353 OA
ATOM     32  C   UNL d   1     -48.493  -2.532 -16.757  0.00  0.00     0.210 C 
ENDBRANCH   1  31
BRANCH  10  33
ATOM     33  N   UNL d   1     -52.354   1.336 -16.611  0.00  0.00    -0.342 N 
ATOM     34  HN  UNL d   1     -52.844   0.529 -16.227  1.00  0.00     0.167 HD
BRANCH  33  35
ATOM     35  C   UNL d   1     -51.967   2.424 -15.779  0.00  0.00     0.035 A 
ATOM     36  C   UNL d   1     -52.459   3.689 -15.954  0.00  0.00     0.055 A 
ATOM     37  C   UNL d   1     -52.102   4.771 -15.159  0.00  0.00     0.058 A 
ATOM     38 CL   UNL d   1     -52.753   6.376 -15.414  0.00  0.00    -0.082 Cl
ATOM     39  C   UNL d   1     -51.200   4.531 -14.144  0.00  0.00     0.055 A 
ATOM     40 CL   UNL d   1     -50.691   5.839 -13.091  0.00  0.00    -0.083 Cl
ATOM     41  C   UNL d   1     -50.667   3.272 -13.918  0.00  0.00     0.028 A 
ATOM     42  C   UNL d   1     -51.063   2.223 -14.748  0.00  0.00     0.031 A 
ENDBRANCH  33  35
ENDBRANCH  10  33
TORSDOF 8
ENDMDL
MODEL 2
REMARK VINA RESULT:      -8.7      1.385      1.872
REMARK  8 active torsions:
REMARK  status: ('A' for Active; 'I' for Inactive)
REMARK    1  A    between atoms: O_2  and  C_3 
REMARK    2  A    between atoms: C_4  and  O_5 
REMARK    3  A    between atoms: O_5  and  C_6 
REMARK    4  A    between atoms: C_6  and  C_7 
REMARK    5  A    between atoms: N_9  and  C_10 
REMARK    6  A    between atoms: C_10  and  C_11 
REMARK    7  A    between atoms: C_30  and  N_31 
REMARK    8  A    between atoms: N_31  and  C_33 
ROOT
ATOM      1  C   UNL d   1     -48.987  -0.379 -17.831  0.00  0.00     0.102 A 
ATOM      2  C   UNL d   1     -48.630  -0.425 -19.157  0.00  0.00     0.104 A 
ATOM      3  C   UNL d   1     -49.464   0.225 -20.054  0.00  0.00     0.070 A 
ATOM      4  C   UNL d   1     -50.582   0.872 -19.613  0.00  0.00     0.050 A 
ATOM      5  N   UNL d   1     -51.381   1.496 -20.477  0.00  0.00    -0.351 N 
ATOM      6  HN  UNL d   1     -51.133   1.473 -21.466  1.00  0.00     0.166 HD
ATOM      7  C   UNL d   1     -52.497   2.152 -20.114  0.00  0.00     0.182 A 
ATOM      8  N   UNL d   1     -52.801   2.166 -18.803  0.00  0.00    -0.338 N 
ATOM      9  HN  UNL d   1     -53.645   2.659 -18.510  1.00  0.00     0.168 HD
ATOM     10  C   UNL d   1     -52.058   1.566 -17.858  0.00  0.00     0.119 A 
ATOM     11  C   UNL d   1     -50.921   0.905 -18.274  0.00  0.00     0.038 A 
ATOM     12  C   UNL d   1     -50.113   0.269 -17.363  0.00  0.00     0.057 A 
ENDROOT
BRANCH   2  13
ATOM     13  O   UNL d   1     -47.493  -1.096 -19.505  0.00  0.00    -0.346 OA
BRANCH  13  14
ATOM     14  C   UNL d   1     -47.404  -2.394 -20.017  0.00  0.00     0.202 C 
BRANCH  14  15
ATOM     15  C   UNL d   1     -46.868  -2.411 -21.444  0.00  0.00     0.137 C 
ATOM     16  C   UNL d   1     -48.069  -2.461 -22.347  0.00  0.00     0.300 C 
ATOM     17  N   UNL d   1     -47.705  -2.464 -23.730  0.00  0.00     0.102 N 
ATOM     18  C   UNL d   1     -46.403  -2.963 -24.034  0.00  0.00     0.375 C 
ATOM     19  C   UNL d   1     -45.919  -3.974 -23.058  0.00  0.00     0.246 C 
ATOM     20  O   UNL d   1     -45.331  -5.041 -23.414  0.00  0.00    -0.272 OA
ATOM     21  N   UNL d   1     -46.154  -3.677 -21.672  0.00  0.00    -0.351 N 
ATOM     22  HN  UNL d   1     -45.855  -4.289 -20.914  1.00  0.00     0.163 HD
BRANCH  17  23
ATOM     23  C   UNL d   1     -48.727  -3.146 -24.509  0.00  0.00     0.300 C 
BRANCH  23  24
ATOM     24  C   UNL d   1     -49.468  -2.159 -25.321  0.00  0.00     0.006 C 
ATOM     25  C   UNL d   1     -50.659  -1.663 -25.030  0.00  0.00    -0.082 C 
ATOM     26  C   UNL d   1     -51.357  -2.048 -23.772  0.00  0.00     0.034 C 
ATOM     27  C   UNL d   1     -51.252  -0.712 -26.021  0.00  0.00     0.034 C 
ATOM     28  C   UNL d   1     -51.788  -0.781 -23.068  0.00  0.00     0.004 C 
ATOM     29  C   UNL d   1     -51.663   0.451 -23.917  0.00  0.00     0.001 C 
ATOM     30  C   UNL d   1     -52.185   0.253 -25.321  0.00  0.00     0.004 C 
ENDBRANCH  23  24
ENDBRANCH  17  23
ENDBRANCH  14  15
ENDBRANCH  13  14
ENDBRANCH   2  13
BRANCH   1  31
ATOM     31  O   UNL d   1     -48.177  -1.021 -16.883  0.00  0.00    -0.353 OA
ATOM     32  C   UNL d   1     -48.692  -1.850 -15.888  0.00  0.00     0.210 C 
ENDBRANCH   1  31
BRANCH  10  33
ATOM     33  N   UNL d   1     -52.386   1.585 -16.473  0.00  0.00    -0.342 N 
ATOM     34  HN  UNL d   1     -52.847   0.790 -16.032  1.00  0.00     0.167 HD
BRANCH  33  35
ATOM     35  C   UNL d   1     -52.051   2.748 -15.722  0.00  0.00     0.035 A 
ATOM     36  C   UNL d   1     -51.204   2.704 -14.648  0.00  0.00     0.055 A 
ATOM     37  C   UNL d   1     -50.857   3.820 -13.896  0.00  0.00     0.058 A 
ATOM     38 CL   UNL d   1     -49.771   3.725 -12.527  0.00  0.00    -0.082 Cl
ATOM     39  C   UNL d   1     -51.410   5.025 -14.272  0.00  0.00     0.055 A 
ATOM     40 CL   UNL d   1     -51.029   6.487 -13.380  0.00  0.00    -0.083 Cl
ATOM     41  C   UNL d   1     -52.274   5.132 -15.352  0.00  0.00     0.028 A 
ATOM     42  C   UNL d   1     -52.586   3.978 -16.071  0.00  0.00     0.031 A 
ENDBRANCH  33  35
ENDBRANCH  10  33
TORSDOF 8
ENDMDL
MODEL 3
REMARK VINA RESULT:      -8.4      3.618      7.745
REMARK  8 active torsions:
REMARK  status: ('A' for Active; 'I' for Inactive)
REMARK    1  A    between atoms: O_2  and  C_3 
REMARK    2  A    between atoms: C_4  and  O_5 
REMARK    3  A    between atoms: O_5  and  C_6 
REMARK    4  A    between atoms: C_6  and  C_7 
REMARK    5  A    between atoms: N_9  and  C_10 
REMARK    6  A    between atoms: C_10  and  C_11 
REMARK    7  A    between atoms: C_30  and  N_31 
REMARK    8  A    between atoms: N_31  and  C_33 
ROOT
ATOM      1  C   UNL d   1     -48.307  -3.453 -20.704  0.00  0.00     0.102 A 
ATOM      2  C   UNL d   1     -47.153  -2.962 -20.145  0.00  0.00     0.104 A 
ATOM      3  C   UNL d   1     -46.208  -2.437 -21.013  0.00  0.00     0.070 A 
ATOM      4  C   UNL d   1     -46.441  -2.421 -22.358  0.00  0.00     0.050 A 
ATOM      5  N   UNL d   1     -45.532  -1.916 -23.190  0.00  0.00    -0.351 N 
ATOM      6  HN  UNL d   1     -44.668  -1.546 -22.794  1.00  0.00     0.166 HD
ATOM      7  C   UNL d   1     -45.693  -1.868 -24.524  0.00  0.00     0.182 A 
ATOM      8  N   UNL d   1     -46.842  -2.363 -25.021  0.00  0.00    -0.338 N 
ATOM      9  HN  UNL d   1     -46.981  -2.335 -26.031  1.00  0.00     0.168 HD
ATOM     10  C   UNL d   1     -47.816  -2.893 -24.263  0.00  0.00     0.119 A 
ATOM     11  C   UNL d   1     -47.609  -2.922 -22.899  0.00  0.00     0.038 A 
ATOM     12  C   UNL d   1     -48.562  -3.448 -22.062  0.00  0.00     0.057 A 
ENDROOT
BRANCH   2  13
ATOM     13  O   UNL d   1     -47.008  -3.020 -18.788  0.00  0.00    -0.346 OA
BRANCH  13  14
ATOM     14  C   UNL d   1     -46.879  -1.941 -17.907  0.00  0.00     0.202 C 
BRANCH  14  15
ATOM     15  C   UNL d   1     -48.147  -1.712 -17.093  0.00  0.00     0.137 C 
ATOM     16  C   UNL d   1     -48.913  -0.628 -17.800  0.00  0.00     0.300 C 
ATOM     17  N   UNL d   1     -50.146  -0.323 -17.143  0.00  0.00     0.102 N 
ATOM     18  C   UNL d   1     -50.204  -0.623 -15.748  0.00  0.00     0.375 C 
ATOM     19  C   UNL d   1     -48.880  -0.552 -15.077  0.00  0.00     0.246 C 
ATOM     20  O   UNL d   1     -48.717  -0.003 -13.944  0.00  0.00    -0.272 OA
ATOM     21  N   UNL d   1     -47.780  -1.144 -15.787  0.00  0.00    -0.351 N 
ATOM     22  HN  UNL d   1     -46.830  -1.168 -15.418  1.00  0.00     0.163 HD
BRANCH  17  23
ATOM     23  C   UNL d   1     -50.516   1.060 -17.401  0.00  0.00     0.300 C 
BRANCH  23  24
ATOM     24  C   UNL d   1     -51.742   1.096 -18.224  0.00  0.00     0.006 C 
ATOM     25  C   UNL d   1     -51.780   1.120 -19.546  0.00  0.00    -0.082 C 
ATOM     26  C   UNL d   1     -50.526   1.061 -20.346  0.00  0.00     0.034 C 
ATOM     27  C   UNL d   1     -53.134   1.209 -20.178  0.00  0.00     0.034 C 
ATOM     28  C   UNL d   1     -50.678  -0.031 -21.379  0.00  0.00     0.004 C 
ATOM     29  C   UNL d   1     -52.083  -0.543 -21.511  0.00  0.00     0.001 C 
ATOM     30  C   UNL d   1     -53.111   0.563 -21.548  0.00  0.00     0.004 C 
ENDBRANCH  23  24
ENDBRANCH  17  23
ENDBRANCH  14  15
ENDBRANCH  13  14
ENDBRANCH   2  13
BRANCH   1  31
ATOM     31  O   UNL d   1     -49.295  -3.996 -19.869  0.00  0.00    -0.353 OA
ATOM     32  C   UNL d   1     -50.545  -3.404 -19.695  0.00  0.00     0.210 C 
ENDBRANCH   1  31
BRANCH  10  33
ATOM     33  N   UNL d   1     -49.029  -3.415 -24.795  0.00  0.00    -0.342 N 
ATOM     34  HN  UNL d   1     -49.094  -4.386 -25.099  1.00  0.00     0.167 HD
BRANCH  33  35
ATOM     35  C   UNL d   1     -50.148  -2.540 -24.890  0.00  0.00     0.035 A 
ATOM     36  C   UNL d   1     -50.007  -1.193 -25.094  0.00  0.00     0.055 A 
ATOM     37  C   UNL d   1     -51.078  -0.314 -25.192  0.00  0.00     0.058 A 
ATOM     38 CL   UNL d   1     -50.858   1.403 -25.452  0.00  0.00    -0.082 Cl
ATOM     39  C   UNL d   1     -52.342  -0.851 -25.074  0.00  0.00     0.055 A 
ATOM     40 CL   UNL d   1     -53.753   0.185 -25.185  0.00  0.00    -0.083 Cl
ATOM     41  C   UNL d   1     -52.548  -2.206 -24.868  0.00  0.00     0.028 A 
ATOM     42  C   UNL d   1     -51.434  -3.042 -24.778  0.00  0.00     0.031 A 
ENDBRANCH  33  35
ENDBRANCH  10  33
TORSDOF 8
ENDMDL
MODEL 4
REMARK VINA RESULT:      -8.3      2.030      3.881
REMARK  8 active torsions:
REMARK  status: ('A' for Active; 'I' for Inactive)
REMARK    1  A    between atoms: O_2  and  C_3 
REMARK    2  A    between atoms: C_4  and  O_5 
REMARK    3  A    between atoms: O_5  and  C_6 
REMARK    4  A    between atoms: C_6  and  C_7 
REMARK    5  A    between atoms: N_9  and  C_10 
REMARK    6  A    between atoms: C_10  and  C_11 
REMARK    7  A    between atoms: C_30  and  N_31 
REMARK    8  A    between atoms: N_31  and  C_33 
ROOT
ATOM      1  C   UNL d   1     -48.374  -1.723 -17.795  0.00  0.00     0.102 A 
ATOM      2  C   UNL d   1     -48.830  -3.019 -17.795  0.00  0.00     0.104 A 
ATOM      3  C   UNL d   1     -49.689  -3.383 -16.769  0.00  0.00     0.070 A 
ATOM      4  C   UNL d   1     -50.048  -2.475 -15.815  0.00  0.00     0.050 A 
ATOM      5  N   UNL d   1     -50.873  -2.827 -14.831  0.00  0.00    -0.351 N 
ATOM      6  HN  UNL d   1     -51.222  -3.785 -14.814  1.00  0.00     0.166 HD
ATOM      7  C   UNL d   1     -51.268  -1.987 -13.858  0.00  0.00     0.182 A 
ATOM      8  N   UNL d   1     -50.791  -0.729 -13.904  0.00  0.00    -0.338 N 
ATOM      9  HN  UNL d   1     -51.081  -0.078 -13.174  1.00  0.00     0.168 HD
ATOM     10  C   UNL d   1     -49.956  -0.281 -14.856  0.00  0.00     0.119 A 
ATOM     11  C   UNL d   1     -49.576  -1.177 -15.834  0.00  0.00     0.038 A 
ATOM     12  C   UNL d   1     -48.724  -0.789 -16.839  0.00  0.00     0.057 A 
ENDROOT
BRANCH   2  13
ATOM     13  O   UNL d   1     -48.417  -3.857 -18.792  0.00  0.00    -0.346 OA
BRANCH  13  14
ATOM     14  C   UNL d   1     -49.225  -4.615 -19.645  0.00  0.00     0.202 C 
BRANCH  14  15
ATOM     15  C   UNL d   1     -49.151  -4.126 -21.087  0.00  0.00     0.137 C 
ATOM     16  C   UNL d   1     -50.256  -3.119 -21.249  0.00  0.00     0.300 C 
ATOM     17  N   UNL d   1     -50.291  -2.563 -22.566  0.00  0.00     0.102 N 
ATOM     18  C   UNL d   1     -49.727  -3.369 -23.601  0.00  0.00     0.375 C 
ATOM     19  C   UNL d   1     -49.817  -4.826 -23.326  0.00  0.00     0.246 C 
ATOM     20  O   UNL d   1     -50.156  -5.670 -24.212  0.00  0.00    -0.272 OA
ATOM     21  N   UNL d   1     -49.498  -5.236 -21.987  0.00  0.00    -0.351 N 
ATOM     22  HN  UNL d   1     -49.513  -6.211 -21.686  1.00  0.00     0.163 HD
BRANCH  17  23
ATOM     23  C   UNL d   1     -51.646  -2.153 -22.895  0.00  0.00     0.300 C 
BRANCH  23  24
ATOM     24  C   UNL d   1     -51.768  -0.689 -22.745  0.00  0.00     0.006 C 
ATOM     25  C   UNL d   1     -52.223  -0.061 -21.673  0.00  0.00    -0.082 C 
ATOM     26  C   UNL d   1     -52.622  -0.822 -20.457  0.00  0.00     0.034 C 
ATOM     27  C   UNL d   1     -52.311   1.430 -21.754  0.00  0.00     0.034 C 
ATOM     28  C   UNL d   1     -51.924  -0.205 -19.267  0.00  0.00     0.004 C 
ATOM     29  C   UNL d   1     -51.279   1.117 -19.566  0.00  0.00     0.001 C 
ATOM     30  C   UNL d   1     -52.168   2.035 -20.373  0.00  0.00     0.004 C 
ENDBRANCH  23  24
ENDBRANCH  17  23
ENDBRANCH  14  15
ENDBRANCH  13  14
ENDBRANCH   2  13
BRANCH   1  31
ATOM     31  O   UNL d   1     -47.503  -1.305 -18.811  0.00  0.00    -0.353 OA
ATOM     32  C   UNL d   1     -47.932  -0.576 -19.920  0.00  0.00     0.210 C 
ENDBRANCH   1  31
BRANCH  10  33
ATOM     33  N   UNL d   1     -49.456   1.051 -14.898  0.00  0.00    -0.342 N 
ATOM     34  HN  UNL d   1     -48.454   1.236 -14.870  1.00  0.00     0.167 HD
BRANCH  33  35
ATOM     35  C   UNL d   1     -50.397   2.116 -14.981  0.00  0.00     0.035 A 
ATOM     36  C   UNL d   1     -50.496   3.080 -14.014  0.00  0.00     0.055 A 
ATOM     37  C   UNL d   1     -51.403   4.130 -14.065  0.00  0.00     0.058 A 
ATOM     38 CL   UNL d   1     -51.500   5.345 -12.808  0.00  0.00    -0.082 Cl
ATOM     39  C   UNL d   1     -52.239   4.184 -15.159  0.00  0.00     0.055 A 
ATOM     40 CL   UNL d   1     -53.416   5.476 -15.308  0.00  0.00    -0.083 Cl
ATOM     41  C   UNL d   1     -52.185   3.237 -16.171  0.00  0.00     0.028 A 
ATOM     42  C   UNL d   1     -51.254   2.204 -16.066  0.00  0.00     0.031 A 
ENDBRANCH  33  35
ENDBRANCH  10  33
TORSDOF 8
ENDMDL
MODEL 5
REMARK VINA RESULT:      -8.1      3.289      5.300
REMARK  8 active torsions:
REMARK  status: ('A' for Active; 'I' for Inactive)
REMARK    1  A    between atoms: O_2  and  C_3 
REMARK    2  A    between atoms: C_4  and  O_5 
REMARK    3  A    between atoms: O_5  and  C_6 
REMARK    4  A    between atoms: C_6  and  C_7 
REMARK    5  A    between atoms: N_9  and  C_10 
REMARK    6  A    between atoms: C_10  and  C_11 
REMARK    7  A    between atoms: C_30  and  N_31 
REMARK    8  A    between atoms: N_31  and  C_33 
ROOT
ATOM      1  C   UNL d   1     -50.744  -0.066 -18.330  0.00  0.00     0.102 A 
ATOM      2  C   UNL d   1     -51.477   0.726 -19.179  0.00  0.00     0.104 A 
ATOM      3  C   UNL d   1     -52.068   1.854 -18.631  0.00  0.00     0.070 A 
ATOM      4  C   UNL d   1     -51.912   2.140 -17.305  0.00  0.00     0.050 A 
ATOM      5  N   UNL d   1     -52.480   3.224 -16.781  0.00  0.00    -0.351 N 
ATOM      6  HN  UNL d   1     -53.029   3.826 -17.395  1.00  0.00     0.166 HD
ATOM      7  C   UNL d   1     -52.369   3.567 -15.486  0.00  0.00     0.182 A 
ATOM      8  N   UNL d   1     -51.640   2.756 -14.697  0.00  0.00    -0.338 N 
ATOM      9  HN  UNL d   1     -51.545   3.001 -13.712  1.00  0.00     0.168 HD
ATOM     10  C   UNL d   1     -51.029   1.642 -15.134  0.00  0.00     0.119 A 
ATOM     11  C   UNL d   1     -51.170   1.328 -16.470  0.00  0.00     0.038 A 
ATOM     12  C   UNL d   1     -50.573   0.203 -16.986  0.00  0.00     0.057 A 
ENDROOT
BRANCH   2  13
ATOM     13  O   UNL d   1     -51.578   0.361 -20.491  0.00  0.00    -0.346 OA
BRANCH  13  14
ATOM     14  C   UNL d   1     -52.096   1.126 -21.542  0.00  0.00     0.202 C 
BRANCH  14  15
ATOM     15  C   UNL d   1     -52.331   0.290 -22.795  0.00  0.00     0.137 C 
ATOM     16  C   UNL d   1     -51.537  -0.974 -22.616  0.00  0.00     0.300 C 
ATOM     17  N   UNL d   1     -51.683  -1.864 -23.725  0.00  0.00     0.102 N 
ATOM     18  C   UNL d   1     -52.036  -1.261 -24.970  0.00  0.00     0.375 C 
ATOM     19  C   UNL d   1     -51.556   0.138 -25.102  0.00  0.00     0.246 C 
ATOM     20  O   UNL d   1     -51.026   0.581 -26.168  0.00  0.00    -0.272 OA
ATOM     21  N   UNL d   1     -51.722   0.974 -23.946  0.00  0.00    -0.351 N 
ATOM     22  HN  UNL d   1     -51.442   1.955 -23.925  1.00  0.00     0.163 HD
BRANCH  17  23
ATOM     23  C   UNL d   1     -50.493  -2.690 -23.858  0.00  0.00     0.300 C 
BRANCH  23  24
ATOM     24  C   UNL d   1     -50.205  -3.349 -22.568  0.00  0.00     0.006 C 
ATOM     25  C   UNL d   1     -50.208  -4.654 -22.354  0.00  0.00    -0.082 C 
ATOM     26  C   UNL d   1     -50.470  -5.608 -23.467  0.00  0.00     0.034 C 
ATOM     27  C   UNL d   1     -49.940  -5.107 -20.953  0.00  0.00     0.034 C 
ATOM     28  C   UNL d   1     -49.367  -6.642 -23.468  0.00  0.00     0.004 C 
ATOM     29  C   UNL d   1     -48.509  -6.607 -22.237  0.00  0.00     0.001 C 
ATOM     30  C   UNL d   1     -49.312  -6.485 -20.963  0.00  0.00     0.004 C 
ENDBRANCH  23  24
ENDBRANCH  17  23
ENDBRANCH  14  15
ENDBRANCH  13  14
ENDBRANCH   2  13
BRANCH   1  31
ATOM     31  O   UNL d   1     -50.125  -1.220 -18.836  0.00  0.00    -0.353 OA
ATOM     32  C   UNL d   1     -48.764  -1.278 -19.131  0.00  0.00     0.210 C 
ENDBRANCH   1  31
BRANCH  10  33
ATOM     33  N   UNL d   1     -50.260   0.788 -14.294  0.00  0.00    -0.342 N 
ATOM     34  HN  UNL d   1     -49.248   0.896 -14.222  1.00  0.00     0.167 HD
BRANCH  33  35
ATOM     35  C   UNL d   1     -50.944  -0.220 -13.559  0.00  0.00     0.035 A 
ATOM     36  C   UNL d   1     -51.953   0.074 -12.681  0.00  0.00     0.055 A 
ATOM     37  C   UNL d   1     -52.639  -0.887 -11.949  0.00  0.00     0.058 A 
ATOM     38 CL   UNL d   1     -53.925  -0.472 -10.834  0.00  0.00    -0.082 Cl
ATOM     39  C   UNL d   1     -52.266  -2.201 -12.134  0.00  0.00     0.055 A 
ATOM     40 CL   UNL d   1     -53.079  -3.480 -11.251  0.00  0.00    -0.083 Cl
ATOM     41  C   UNL d   1     -51.253  -2.560 -13.009  0.00  0.00     0.028 A 
ATOM     42  C   UNL d   1     -50.598  -1.553 -13.718  0.00  0.00     0.031 A 
ENDBRANCH  33  35
ENDBRANCH  10  33
TORSDOF 8
ENDMDL
MODEL 6
REMARK VINA RESULT:      -8.0      4.974      9.853
REMARK  8 active torsions:
REMARK  status: ('A' for Active; 'I' for Inactive)
REMARK    1  A    between atoms: O_2  and  C_3 
REMARK    2  A    between atoms: C_4  and  O_5 
REMARK    3  A    between atoms: O_5  and  C_6 
REMARK    4  A    between atoms: C_6  and  C_7 
REMARK    5  A    between atoms: N_9  and  C_10 
REMARK    6  A    between atoms: C_10  and  C_11 
REMARK    7  A    between atoms: C_30  and  N_31 
REMARK    8  A    between atoms: N_31  and  C_33 
ROOT
ATOM      1  C   UNL d   1     -49.820   0.165 -16.709  0.00  0.00     0.102 A 
ATOM      2  C   UNL d   1     -50.730   0.868 -15.957  0.00  0.00     0.104 A 
ATOM      3  C   UNL d   1     -51.729   1.539 -16.646  0.00  0.00     0.070 A 
ATOM      4  C   UNL d   1     -51.782   1.486 -18.009  0.00  0.00     0.050 A 
ATOM      5  N   UNL d   1     -52.742   2.131 -18.669  0.00  0.00    -0.351 N 
ATOM      6  HN  UNL d   1     -53.427   2.659 -18.129  1.00  0.00     0.166 HD
ATOM      7  C   UNL d   1     -52.855   2.125 -20.009  0.00  0.00     0.182 A 
ATOM      8  N   UNL d   1     -51.936   1.421 -20.697  0.00  0.00    -0.338 N 
ATOM      9  HN  UNL d   1     -52.007   1.405 -21.715  1.00  0.00     0.168 HD
ATOM     10  C   UNL d   1     -50.932   0.739 -20.122  0.00  0.00     0.119 A 
ATOM     11  C   UNL d   1     -50.855   0.774 -18.745  0.00  0.00     0.038 A 
ATOM     12  C   UNL d   1     -49.854   0.100 -18.088  0.00  0.00     0.057 A 
ENDROOT
BRANCH   2  13
ATOM     13  O   UNL d   1     -50.599   0.863 -14.597  0.00  0.00    -0.346 OA
BRANCH  13  14
ATOM     14  C   UNL d   1     -51.513   1.355 -13.660  0.00  0.00     0.202 C 
BRANCH  14  15
ATOM     15  C   UNL d   1     -51.586   0.476 -12.417  0.00  0.00     0.137 C 
ATOM     16  C   UNL d   1     -51.306  -0.929 -12.875  0.00  0.00     0.300 C 
ATOM     17  N   UNL d   1     -51.328  -1.863 -11.793  0.00  0.00     0.102 N 
ATOM     18  C   UNL d   1     -52.106  -1.488 -10.656  0.00  0.00     0.375 C 
ATOM     19  C   UNL d   1     -53.248  -0.600 -10.994  0.00  0.00     0.246 C 
ATOM     20  O   UNL d   1     -54.406  -0.757 -10.496  0.00  0.00    -0.272 OA
ATOM     21  N   UNL d   1     -52.972   0.458 -11.925  0.00  0.00    -0.351 N 
ATOM     22  HN  UNL d   1     -53.674   1.137 -12.220  1.00  0.00     0.163 HD
BRANCH  17  23
ATOM     23  C   UNL d   1     -51.710  -3.179 -12.282  0.00  0.00     0.300 C 
BRANCH  23  24
ATOM     24  C   UNL d   1     -51.168  -4.216 -11.381  0.00  0.00     0.006 C 
ATOM     25  C   UNL d   1     -49.935  -4.691 -11.410  0.00  0.00    -0.082 C 
ATOM     26  C   UNL d   1     -48.934  -4.154 -12.372  0.00  0.00     0.034 C 
ATOM     27  C   UNL d   1     -49.611  -5.781 -10.436  0.00  0.00     0.034 C 
ATOM     28  C   UNL d   1     -47.686  -3.793 -11.599  0.00  0.00     0.004 C 
ATOM     29  C   UNL d   1     -47.679  -4.313 -10.191  0.00  0.00     0.001 C 
ATOM     30  C   UNL d   1     -48.137  -5.749 -10.092  0.00  0.00     0.004 C 
ENDBRANCH  23  24
ENDBRANCH  17  23
ENDBRANCH  14  15
ENDBRANCH  13  14
ENDBRANCH   2  13
BRANCH   1  31
ATOM     31  O   UNL d   1     -48.790  -0.531 -16.059  0.00  0.00    -0.353 OA
ATOM     32  C   UNL d   1     -48.786  -1.918 -15.923  0.00  0.00     0.210 C 
ENDBRANCH   1  31
BRANCH  10  33
ATOM     33  N   UNL d   1     -49.965  -0.002 -20.856  0.00  0.00    -0.342 N 
ATOM     34  HN  UNL d   1     -48.987   0.285 -20.876  1.00  0.00     0.167 HD
BRANCH  33  35
ATOM     35  C   UNL d   1     -50.405  -1.157 -21.563  0.00  0.00     0.035 A 
ATOM     36  C   UNL d   1     -51.049  -1.075 -22.768  0.00  0.00     0.055 A 
ATOM     37  C   UNL d   1     -51.490  -2.182 -23.482  0.00  0.00     0.058 A 
ATOM     38 CL   UNL d   1     -52.312  -2.037 -25.021  0.00  0.00    -0.082 Cl
ATOM     39  C   UNL d   1     -51.253  -3.421 -22.926  0.00  0.00     0.055 A 
ATOM     40 CL   UNL d   1     -51.774  -4.875 -23.758  0.00  0.00    -0.083 Cl
ATOM     41  C   UNL d   1     -50.604  -3.568 -21.710  0.00  0.00     0.028 A 
ATOM     42  C   UNL d   1     -50.184  -2.420 -21.037  0.00  0.00     0.031 A 
ENDBRANCH  33  35
ENDBRANCH  10  33
TORSDOF 8
ENDMDL
MODEL 7
REMARK VINA RESULT:      -7.9      4.076      8.464
REMARK  8 active torsions:
REMARK  status: ('A' for Active; 'I' for Inactive)
REMARK    1  A    between atoms: O_2  and  C_3 
REMARK    2  A    between atoms: C_4  and  O_5 
REMARK    3  A    between atoms: O_5  and  C_6 
REMARK    4  A    between atoms: C_6  and  C_7 
REMARK    5  A    between atoms: N_9  and  C_10 
REMARK    6  A    between atoms: C_10  and  C_11 
REMARK    7  A    between atoms: C_30  and  N_31 
REMARK    8  A    between atoms: N_31  and  C_33 
ROOT
ATOM      1  C   UNL d   1     -49.495  -4.379 -19.691  0.00  0.00     0.102 A 
ATOM      2  C   UNL d   1     -48.348  -4.480 -18.942  0.00  0.00     0.104 A 
ATOM      3  C   UNL d   1     -47.375  -5.355 -19.399  0.00  0.00     0.070 A 
ATOM      4  C   UNL d   1     -47.574  -6.072 -20.544  0.00  0.00     0.050 A 
ATOM      5  N   UNL d   1     -46.638  -6.912 -20.981  0.00  0.00    -0.351 N 
ATOM      6  HN  UNL d   1     -45.779  -7.001 -20.438  1.00  0.00     0.166 HD
ATOM      7  C   UNL d   1     -46.766  -7.649 -22.098  0.00  0.00     0.182 A 
ATOM      8  N   UNL d   1     -47.910  -7.513 -22.794  0.00  0.00    -0.338 N 
ATOM      9  HN  UNL d   1     -48.024  -8.065 -23.644  1.00  0.00     0.168 HD
ATOM     10  C   UNL d   1     -48.910  -6.692 -22.434  0.00  0.00     0.119 A 
ATOM     11  C   UNL d   1     -48.737  -5.954 -21.281  0.00  0.00     0.038 A 
ATOM     12  C   UNL d   1     -49.718  -5.094 -20.851  0.00  0.00     0.057 A 
ENDROOT
BRANCH   2  13
ATOM     13  O   UNL d   1     -48.237  -3.723 -17.810  0.00  0.00    -0.346 OA
BRANCH  13  14
ATOM     14  C   UNL d   1     -47.847  -2.382 -17.728  0.00  0.00     0.202 C 
BRANCH  14  15
ATOM     15  C   UNL d   1     -48.898  -1.522 -17.036  0.00  0.00     0.137 C 
ATOM     16  C   UNL d   1     -49.623  -0.782 -18.126  0.00  0.00     0.300 C 
ATOM     17  N   UNL d   1     -50.659   0.059 -17.612  0.00  0.00     0.102 N 
ATOM     18  C   UNL d   1     -50.499   0.494 -16.262  0.00  0.00     0.375 C 
ATOM     19  C   UNL d   1     -49.078   0.596 -15.842  0.00  0.00     0.246 C 
ATOM     20  O   UNL d   1     -48.632   1.577 -15.169  0.00  0.00    -0.272 OA
ATOM     21  N   UNL d   1     -48.221  -0.485 -16.244  0.00  0.00    -0.351 N 
ATOM     22  HN  UNL d   1     -47.231  -0.529 -16.001  1.00  0.00     0.163 HD
BRANCH  17  23
ATOM     23  C   UNL d   1     -50.874   1.184 -18.507  0.00  0.00     0.300 C 
BRANCH  23  24
ATOM     24  C   UNL d   1     -50.675   0.747 -19.904  0.00  0.00     0.006 C 
ATOM     25  C   UNL d   1     -51.633   0.388 -20.742  0.00  0.00    -0.082 C 
ATOM     26  C   UNL d   1     -53.063   0.446 -20.332  0.00  0.00     0.034 C 
ATOM     27  C   UNL d   1     -51.203  -0.072 -22.099  0.00  0.00     0.034 C 
ATOM     28  C   UNL d   1     -53.825   1.207 -21.393  0.00  0.00     0.004 C 
ATOM     29  C   UNL d   1     -53.038   1.437 -22.650  0.00  0.00     0.001 C 
ATOM     30  C   UNL d   1     -52.294   0.206 -23.112  0.00  0.00     0.004 C 
ENDBRANCH  23  24
ENDBRANCH  17  23
ENDBRANCH  14  15
ENDBRANCH  13  14
ENDBRANCH   2  13
BRANCH   1  31
ATOM     31  O   UNL d   1     -50.511  -3.506 -19.271  0.00  0.00    -0.353 OA
ATOM     32  C   UNL d   1     -51.497  -3.027 -20.133  0.00  0.00     0.210 C 
ENDBRANCH   1  31
BRANCH  10  33
ATOM     33  N   UNL d   1     -50.117  -6.553 -23.175  0.00  0.00    -0.342 N 
ATOM     34  HN  UNL d   1     -50.804  -7.306 -23.207  1.00  0.00     0.167 HD
BRANCH  33  35
ATOM     35  C   UNL d   1     -50.337  -5.330 -23.871  0.00  0.00     0.035 A 
ATOM     36  C   UNL d   1     -49.353  -4.717 -24.599  0.00  0.00     0.055 A 
ATOM     37  C   UNL d   1     -49.535  -3.525 -25.289  0.00  0.00     0.058 A 
ATOM     38 CL   UNL d   1     -48.252  -2.770 -26.209  0.00  0.00    -0.082 Cl
ATOM     39  C   UNL d   1     -50.785  -2.947 -25.221  0.00  0.00     0.055 A 
ATOM     40 CL   UNL d   1     -51.106  -1.441 -26.061  0.00  0.00    -0.083 Cl
ATOM     41  C   UNL d   1     -51.821  -3.521 -24.500  0.00  0.00     0.028 A 
ATOM     42  C   UNL d   1     -51.580  -4.719 -23.828  0.00  0.00     0.031 A 
ENDBRANCH  33  35
ENDBRANCH  10  33
TORSDOF 8
ENDMDL
MODEL 8
REMARK VINA RESULT:      -7.6      4.474      7.037
REMARK  8 active torsions:
REMARK  status: ('A' for Active; 'I' for Inactive)
REMARK    1  A    between atoms: O_2  and  C_3 
REMARK    2  A    between atoms: C_4  and  O_5 
REMARK    3  A    between atoms: O_5  and  C_6 
REMARK    4  A    between atoms: C_6  and  C_7 
REMARK    5  A    between atoms: N_9  and  C_10 
REMARK    6  A    between atoms: C_10  and  C_11 
REMARK    7  A    between atoms: C_30  and  N_31 
REMARK    8  A    between atoms: N_31  and  C_33 
ROOT
ATOM      1  C   UNL d   1     -47.340  -3.415 -24.697  0.00  0.00     0.102 A 
ATOM      2  C   UNL d   1     -47.246  -4.772 -24.501  0.00  0.00     0.104 A 
ATOM      3  C   UNL d   1     -48.433  -5.460 -24.300  0.00  0.00     0.070 A 
ATOM      4  C   UNL d   1     -49.625  -4.796 -24.302  0.00  0.00     0.050 A 
ATOM      5  N   UNL d   1     -50.763  -5.459 -24.109  0.00  0.00    -0.351 N 
ATOM      6  HN  UNL d   1     -50.715  -6.467 -23.961  1.00  0.00     0.166 HD
ATOM      7  C   UNL d   1     -51.973  -4.871 -24.098  0.00  0.00     0.182 A 
ATOM      8  N   UNL d   1     -52.008  -3.539 -24.295  0.00  0.00    -0.338 N 
ATOM      9  HN  UNL d   1     -52.916  -3.076 -24.289  1.00  0.00     0.168 HD
ATOM     10  C   UNL d   1     -50.915  -2.785 -24.497  0.00  0.00     0.119 A 
ATOM     11  C   UNL d   1     -49.695  -3.430 -24.501  0.00  0.00     0.038 A 
ATOM     12  C   UNL d   1     -48.535  -2.723 -24.703  0.00  0.00     0.057 A 
ENDROOT
BRANCH   2  13
ATOM     13  O   UNL d   1     -46.009  -5.351 -24.515  0.00  0.00    -0.346 OA
BRANCH  13  14
ATOM     14  C   UNL d   1     -45.659  -6.603 -24.000  0.00  0.00     0.202 C 
BRANCH  14  15
ATOM     15  C   UNL d   1     -45.088  -6.502 -22.590  0.00  0.00     0.137 C 
ATOM     16  C   UNL d   1     -46.098  -7.141 -21.678  0.00  0.00     0.300 C 
ATOM     17  N   UNL d   1     -45.676  -7.129 -20.312  0.00  0.00     0.102 N 
ATOM     18  C   UNL d   1     -44.745  -6.107 -19.954  0.00  0.00     0.375 C 
ATOM     19  C   UNL d   1     -44.872  -4.881 -20.782  0.00  0.00     0.246 C 
ATOM     20  O   UNL d   1     -44.834  -3.713 -20.284  0.00  0.00    -0.272 OA
ATOM     21  N   UNL d   1     -45.043  -5.087 -22.193  0.00  0.00    -0.351 N 
ATOM     22  HN  UNL d   1     -45.127  -4.320 -22.860  1.00  0.00     0.163 HD
BRANCH  17  23
ATOM     23  C   UNL d   1     -46.836  -7.117 -19.435  0.00  0.00     0.300 C 
BRANCH  23  24
ATOM     24  C   UNL d   1     -48.008  -6.607 -20.176  0.00  0.00     0.006 C 
ATOM     25  C   UNL d   1     -48.663  -5.491 -19.904  0.00  0.00    -0.082 C 
ATOM     26  C   UNL d   1     -48.215  -4.594 -18.803  0.00  0.00     0.034 C 
ATOM     27  C   UNL d   1     -49.859  -5.190 -20.752  0.00  0.00     0.034 C 
ATOM     28  C   UNL d   1     -48.108  -3.191 -19.355  0.00  0.00     0.004 C 
ATOM     29  C   UNL d   1     -48.726  -3.030 -20.713  0.00  0.00     0.001 C 
ATOM     30  C   UNL d   1     -50.079  -3.693 -20.826  0.00  0.00     0.004 C 
ENDBRANCH  23  24
ENDBRANCH  17  23
ENDBRANCH  14  15
ENDBRANCH  13  14
ENDBRANCH   2  13
BRANCH   1  31
ATOM     31  O   UNL d   1     -46.168  -2.673 -24.905  0.00  0.00    -0.353 OA
ATOM     32  C   UNL d   1     -45.577  -1.901 -23.905  0.00  0.00     0.210 C 
ENDBRANCH   1  31
BRANCH  10  33
ATOM     33  N   UNL d   1     -50.959  -1.378 -24.705  0.00  0.00    -0.342 N 
ATOM     34  HN  UNL d   1     -50.659  -0.968 -25.589  1.00  0.00     0.167 HD
BRANCH  33  35
ATOM     35  C   UNL d   1     -51.436  -0.560 -23.641  0.00  0.00     0.035 A 
ATOM     36  C   UNL d   1     -50.810  -0.506 -22.425  0.00  0.00     0.055 A 
ATOM     37  C   UNL d   1     -51.250   0.281 -21.369  0.00  0.00     0.058 A 
ATOM     38 CL   UNL d   1     -50.423   0.323 -19.826  0.00  0.00    -0.082 Cl
ATOM     39  C   UNL d   1     -52.380   1.040 -21.581  0.00  0.00     0.055 A 
ATOM     40 CL   UNL d   1     -53.007   2.065 -20.302  0.00  0.00    -0.083 Cl
ATOM     41  C   UNL d   1     -53.056   1.028 -22.791  0.00  0.00     0.028 A 
ATOM     42  C   UNL d   1     -52.569   0.218 -23.817  0.00  0.00     0.031 A 
ENDBRANCH  33  35
ENDBRANCH  10  33
TORSDOF 8
ENDMDL
MODEL 9
REMARK VINA RESULT:      -7.6      5.724      8.149
REMARK  8 active torsions:
REMARK  status: ('A' for Active; 'I' for Inactive)
REMARK    1  A    between atoms: O_2  and  C_3 
REMARK    2  A    between atoms: C_4  and  O_5 
REMARK    3  A    between atoms: O_5  and  C_6 
REMARK    4  A    between atoms: C_6  and  C_7 
REMARK    5  A    between atoms: N_9  and  C_10 
REMARK    6  A    between atoms: C_10  and  C_11 
REMARK    7  A    between atoms: C_30  and  N_31 
REMARK    8  A    between atoms: N_31  and  C_33 
ROOT
ATOM      1  C   UNL d   1     -48.847  -1.811 -13.615  0.00  0.00     0.102 A 
ATOM      2  C   UNL d   1     -49.947  -1.287 -14.250  0.00  0.00     0.104 A 
ATOM      3  C   UNL d   1     -51.188  -1.752 -13.842  0.00  0.00     0.070 A 
ATOM      4  C   UNL d   1     -51.283  -2.689 -12.854  0.00  0.00     0.050 A 
ATOM      5  N   UNL d   1     -52.476  -3.134 -12.465  0.00  0.00    -0.351 N 
ATOM      6  HN  UNL d   1     -53.305  -2.757 -12.923  1.00  0.00     0.166 HD
ATOM      7  C   UNL d   1     -52.646  -4.055 -11.499  0.00  0.00     0.182 A 
ATOM      8  N   UNL d   1     -51.535  -4.537 -10.911  0.00  0.00    -0.338 N 
ATOM      9  HN  UNL d   1     -51.644  -5.236 -10.176  1.00  0.00     0.168 HD
ATOM     10  C   UNL d   1     -50.290  -4.150 -11.235  0.00  0.00     0.119 A 
ATOM     11  C   UNL d   1     -50.163  -3.203 -12.231  0.00  0.00     0.038 A 
ATOM     12  C   UNL d   1     -48.921  -2.760 -12.614  0.00  0.00     0.057 A 
ENDROOT
BRANCH   2  13
ATOM     13  O   UNL d   1     -49.755  -0.353 -15.228  0.00  0.00    -0.346 OA
BRANCH  13  14
ATOM     14  C   UNL d   1     -50.740   0.355 -15.923  0.00  0.00     0.202 C 
BRANCH  14  15
ATOM     15  C   UNL d   1     -50.302   0.702 -17.341  0.00  0.00     0.137 C 
ATOM     16  C   UNL d   1     -51.409   0.243 -18.250  0.00  0.00     0.300 C 
ATOM     17  N   UNL d   1     -51.131   0.525 -19.624  0.00  0.00     0.102 N 
ATOM     18  C   UNL d   1     -49.752   0.647 -19.972  0.00  0.00     0.375 C 
ATOM     19  C   UNL d   1     -48.855  -0.159 -19.105  0.00  0.00     0.246 C 
ATOM     20  O   UNL d   1     -47.891  -0.844 -19.568  0.00  0.00    -0.272 OA
ATOM     21  N   UNL d   1     -49.137  -0.122 -17.697  0.00  0.00    -0.351 N 
ATOM     22  HN  UNL d   1     -48.580  -0.624 -17.005  1.00  0.00     0.163 HD
BRANCH  17  23
ATOM     23  C   UNL d   1     -51.807  -0.442 -20.474  0.00  0.00     0.300 C 
BRANCH  23  24
ATOM     24  C   UNL d   1     -52.938   0.213 -21.162  0.00  0.00     0.006 C 
ATOM     25  C   UNL d   1     -52.890   0.775 -22.359  0.00  0.00    -0.082 C 
ATOM     26  C   UNL d   1     -51.637   0.744 -23.164  0.00  0.00     0.034 C 
ATOM     27  C   UNL d   1     -54.144   1.430 -22.846  0.00  0.00     0.034 C 
ATOM     28  C   UNL d   1     -51.978   0.230 -24.543  0.00  0.00     0.004 C 
ATOM     29  C   UNL d   1     -53.454   0.165 -24.814  0.00  0.00     0.001 C 
ATOM     30  C   UNL d   1     -54.189   1.404 -24.359  0.00  0.00     0.004 C 
ENDBRANCH  23  24
ENDBRANCH  17  23
ENDBRANCH  14  15
ENDBRANCH  13  14
ENDBRANCH   2  13
BRANCH   1  31
ATOM     31  O   UNL d   1     -47.569  -1.373 -13.991  0.00  0.00    -0.353 OA
ATOM     32  C   UNL d   1     -46.788  -0.546 -13.185  0.00  0.00     0.210 C 
ENDBRANCH   1  31
BRANCH  10  33
ATOM     33  N   UNL d   1     -49.120  -4.663 -10.608  0.00  0.00    -0.342 N 
ATOM     34  HN  UNL d   1     -48.648  -4.142  -9.869  1.00  0.00     0.167 HD
BRANCH  33  35
ATOM     35  C   UNL d   1     -48.628  -5.926 -11.044  0.00  0.00     0.035 A 
ATOM     36  C   UNL d   1     -47.558  -6.040 -11.890  0.00  0.00     0.055 A 
ATOM     37  C   UNL d   1     -47.054  -7.256 -12.333  0.00  0.00     0.058 A 
ATOM     38 CL   UNL d   1     -45.683  -7.363 -13.417  0.00  0.00    -0.082 Cl
ATOM     39  C   UNL d   1     -47.683  -8.397 -11.882  0.00  0.00     0.055 A 
ATOM     40 CL   UNL d   1     -47.114  -9.977 -12.390  0.00  0.00    -0.083 Cl
ATOM     41  C   UNL d   1     -48.770  -8.345 -11.023  0.00  0.00     0.028 A 
ATOM     42  C   UNL d   1     -49.233  -7.095 -10.611  0.00  0.00     0.031 A 
ENDBRANCH  33  35
ENDBRANCH  10  33
TORSDOF 8
ENDMDL
