MODEL 1
REMARK VINA RESULT:      -8.7      0.000      0.000
REMARK  9 active torsions:
REMARK  status: ('A' for Active; 'I' for Inactive)
REMARK    1  A    between atoms: O_2  and  C_3 
REMARK    2  A    between atoms: C_4  and  O_5 
REMARK    3  A    between atoms: O_5  and  C_6 
REMARK    4  A    between atoms: C_6  and  C_7 
REMARK    5  A    between atoms: C_10  and  C_11 
REMARK    6  A    between atoms: C_11  and  S_12 
REMARK    7  A    between atoms: S_12  and  C_15 
REMARK    8  A    between atoms: C_32  and  N_33 
REMARK    9  A    between atoms: N_33  and  C_35 
ROOT
ATOM      1  C   UNL d   1     -49.007  -0.397 -17.602  0.00  0.00     0.102 A 
ATOM      2  C   UNL d   1     -48.684  -0.403 -18.939  0.00  0.00     0.104 A 
ATOM      3  C   UNL d   1     -49.489   0.261 -19.877  0.00  0.00     0.070 A 
ATOM      4  C   UNL d   1     -50.617   0.914 -19.373  0.00  0.00     0.050 A 
ATOM      5  N   UNL d   1     -51.388   1.538 -20.261  0.00  0.00    -0.351 N 
ATOM      6  HN  UNL d   1     -51.130   1.521 -21.248  1.00  0.00     0.166 HD
ATOM      7  C   UNL d   1     -52.517   2.200 -19.874  0.00  0.00     0.182 A 
ATOM      8  N   UNL d   1     -52.844   2.211 -18.548  0.00  0.00    -0.338 N 
ATOM      9  HN  UNL d   1     -53.683   2.699 -18.237  1.00  0.00     0.168 HD
ATOM     10  C   UNL d   1     -52.067   1.583 -17.654  0.00  0.00     0.119 A 
ATOM     11  C   UNL d   1     -50.926   0.909 -18.023  0.00  0.00     0.038 A 
ATOM     12  C   UNL d   1     -50.120   0.246 -17.092  0.00  0.00     0.057 A 
ENDROOT
BRANCH   2  13
ATOM     13  O   UNL d   1     -47.553  -1.062 -19.411  0.00  0.00    -0.340 OA
BRANCH  13  14
ATOM     14  C   UNL d   1     -47.506  -2.407 -19.738  0.00  0.00     0.262 C 
BRANCH  14  15
ATOM     15  C   UNL d   1     -47.869  -2.772 -21.108  0.00  0.00     0.172 A 
ATOM     16  N   UNL d   1     -48.609  -2.058 -22.010  0.00  0.00    -0.324 N 
ATOM     17  C   UNL d   1     -48.654  -2.840 -23.131  0.00  0.00     0.118 A 
ATOM     18  HN  UNL d   1     -49.037  -1.143 -21.876  1.00  0.00     0.169 HD
ATOM     19  N   UNL d   1     -47.956  -3.980 -22.894  0.00  0.00    -0.246 N 
ATOM     20  O   UNL d   1     -47.516  -3.890 -21.691  0.00  0.00    -0.221 OA
ATOM     21  HN  UNL d   1     -47.812  -4.755 -23.541  1.00  0.00     0.196 HD
BRANCH  17  22
ATOM     22  C   UNL d   1     -49.329  -2.556 -24.422  0.00  0.00     0.225 C 
BRANCH  22  23
ATOM     23  S   UNL d   1     -51.092  -2.861 -24.201  0.00  0.00     0.197 S 
ATOM     24  O   UNL d   1     -51.470  -3.791 -25.333  0.00  0.00    -0.221 OA
ATOM     25  O   UNL d   1     -51.364  -3.546 -22.906  0.00  0.00    -0.221 OA
BRANCH  23  26
ATOM     26  C   UNL d   1     -51.878  -1.332 -24.357  0.00  0.00     0.128 A 
ATOM     27  N   UNL d   1     -52.848  -1.141 -25.259  0.00  0.00    -0.357 N 
ATOM     28  C   UNL d   1     -53.496   0.035 -25.423  0.00  0.00     0.089 A 
ATOM     29  HN  UNL d   1     -53.114  -1.924 -25.856  1.00  0.00     0.166 HD
ATOM     30  C   UNL d   1     -53.143   1.094 -24.621  0.00  0.00     0.017 A 
ATOM     31  C   UNL d   1     -52.160   0.967 -23.681  0.00  0.00     0.004 A 
ATOM     32  C   UNL d   1     -51.532  -0.257 -23.558  0.00  0.00     0.042 A 
ENDBRANCH  23  26
ENDBRANCH  22  23
ENDBRANCH  17  22
ENDBRANCH  14  15
ENDBRANCH  13  14
ENDBRANCH   2  13
BRANCH   1  33
ATOM     33  O   UNL d   1     -48.193  -1.068 -16.676  0.00  0.00    -0.353 OA
ATOM     34  C   UNL d   1     -48.568  -2.292 -16.099  0.00  0.00     0.210 C 
ENDBRANCH   1  33
BRANCH  10  35
ATOM     35  N   UNL d   1     -52.472   1.644 -16.277  0.00  0.00    -0.342 N 
ATOM     36  HN  UNL d   1     -52.972   0.890 -15.806  1.00  0.00     0.167 HD
BRANCH  35  37
ATOM     37  C   UNL d   1     -52.097   2.880 -15.621  0.00  0.00     0.035 A 
ATOM     38  C   UNL d   1     -51.182   2.773 -14.576  0.00  0.00     0.055 A 
ATOM     39  C   UNL d   1     -50.782   3.948 -13.922  0.00  0.00     0.058 A 
ATOM     40 CL   UNL d   1     -49.625   3.798 -12.605  0.00  0.00    -0.082 Cl
ATOM     41  C   UNL d   1     -51.288   5.159 -14.315  0.00  0.00     0.055 A 
ATOM     42 CL   UNL d   1     -50.732   6.581 -13.444  0.00  0.00    -0.083 Cl
ATOM     43  C   UNL d   1     -52.213   5.282 -15.367  0.00  0.00     0.028 A 
ATOM     44  C   UNL d   1     -52.594   4.086 -16.002  0.00  0.00     0.031 A 
ENDBRANCH  35  37
ENDBRANCH  10  35
TORSDOF 9
ENDMDL
MODEL 2
REMARK VINA RESULT:      -8.6      4.887      9.906
REMARK  9 active torsions:
REMARK  status: ('A' for Active; 'I' for Inactive)
REMARK    1  A    between atoms: O_2  and  C_3 
REMARK    2  A    between atoms: C_4  and  O_5 
REMARK    3  A    between atoms: O_5  and  C_6 
REMARK    4  A    between atoms: C_6  and  C_7 
REMARK    5  A    between atoms: C_10  and  C_11 
REMARK    6  A    between atoms: C_11  and  S_12 
REMARK    7  A    between atoms: S_12  and  C_15 
REMARK    8  A    between atoms: C_32  and  N_33 
REMARK    9  A    between atoms: N_33  and  C_35 
ROOT
ATOM      1  C   UNL d   1     -51.260   0.232 -20.577  0.00  0.00     0.102 A 
ATOM      2  C   UNL d   1     -52.363   0.775 -19.958  0.00  0.00     0.104 A 
ATOM      3  C   UNL d   1     -53.447   1.253 -20.710  0.00  0.00     0.070 A 
ATOM      4  C   UNL d   1     -53.333   1.144 -22.098  0.00  0.00     0.050 A 
ATOM      5  N   UNL d   1     -54.357   1.604 -22.816  0.00  0.00    -0.351 N 
ATOM      6  HN  UNL d   1     -55.164   2.003 -22.337  1.00  0.00     0.166 HD
ATOM      7  C   UNL d   1     -54.343   1.552 -24.179  0.00  0.00     0.182 A 
ATOM      8  N   UNL d   1     -53.252   1.013 -24.800  0.00  0.00    -0.338 N 
ATOM      9  HN  UNL d   1     -53.221   0.965 -25.818  1.00  0.00     0.168 HD
ATOM     10  C   UNL d   1     -52.223   0.550 -24.078  0.00  0.00     0.119 A 
ATOM     11  C   UNL d   1     -52.215   0.594 -22.703  0.00  0.00     0.038 A 
ATOM     12  C   UNL d   1     -51.137   0.119 -21.949  0.00  0.00     0.057 A 
ENDROOT
BRANCH   2  13
ATOM     13  O   UNL d   1     -52.447   0.870 -18.573  0.00  0.00    -0.340 OA
BRANCH  13  14
ATOM     14  C   UNL d   1     -52.069   1.980 -17.836  0.00  0.00     0.262 C 
BRANCH  14  15
ATOM     15  C   UNL d   1     -51.603   1.744 -16.469  0.00  0.00     0.172 A 
ATOM     16  N   UNL d   1     -52.209   1.024 -15.476  0.00  0.00    -0.324 N 
ATOM     17  C   UNL d   1     -51.366   1.118 -14.404  0.00  0.00     0.118 A 
ATOM     18  HN  UNL d   1     -53.097   0.527 -15.525  1.00  0.00     0.169 HD
ATOM     19  N   UNL d   1     -50.293   1.872 -14.758  0.00  0.00    -0.246 N 
ATOM     20  O   UNL d   1     -50.482   2.214 -15.981  0.00  0.00    -0.221 OA
ATOM     21  HN  UNL d   1     -49.498   2.117 -14.171  1.00  0.00     0.196 HD
BRANCH  17  22
ATOM     22  C   UNL d   1     -51.530   0.526 -13.053  0.00  0.00     0.225 C 
BRANCH  22  23
ATOM     23  S   UNL d   1     -50.463  -0.922 -12.950  0.00  0.00     0.197 S 
ATOM     24  O   UNL d   1     -50.161  -1.286 -14.388  0.00  0.00    -0.221 OA
ATOM     25  O   UNL d   1     -49.182  -0.602 -12.259  0.00  0.00    -0.221 OA
BRANCH  23  26
ATOM     26  C   UNL d   1     -51.384  -2.157 -12.171  0.00  0.00     0.128 A 
ATOM     27  N   UNL d   1     -52.648  -1.943 -11.791  0.00  0.00    -0.357 N 
ATOM     28  C   UNL d   1     -53.414  -2.874 -11.178  0.00  0.00     0.089 A 
ATOM     29  HN  UNL d   1     -53.059  -1.027 -11.974  1.00  0.00     0.166 HD
ATOM     30  C   UNL d   1     -52.866  -4.111 -10.930  0.00  0.00     0.017 A 
ATOM     31  C   UNL d   1     -51.580  -4.395 -11.291  0.00  0.00     0.004 A 
ATOM     32  C   UNL d   1     -50.845  -3.406 -11.914  0.00  0.00     0.042 A 
ENDBRANCH  23  26
ENDBRANCH  22  23
ENDBRANCH  17  22
ENDBRANCH  14  15
ENDBRANCH  13  14
ENDBRANCH   2  13
BRANCH   1  33
ATOM     33  O   UNL d   1     -50.182  -0.240 -19.810  0.00  0.00    -0.353 OA
ATOM     34  C   UNL d   1     -48.871   0.227 -19.997  0.00  0.00     0.210 C 
ENDBRANCH   1  33
BRANCH  10  35
ATOM     35  N   UNL d   1     -51.113  -0.009 -24.801  0.00  0.00    -0.342 N 
ATOM     36  HN  UNL d   1     -50.498   0.545 -25.397  1.00  0.00     0.167 HD
BRANCH  35  37
ATOM     37  C   UNL d   1     -50.953  -1.434 -24.600  0.00  0.00     0.035 A 
ATOM     38  C   UNL d   1     -49.654  -1.885 -24.379  0.00  0.00     0.055 A 
ATOM     39  C   UNL d   1     -49.456  -3.258 -24.165  0.00  0.00     0.058 A 
ATOM     40 CL   UNL d   1     -47.810  -3.813 -23.887  0.00  0.00    -0.082 Cl
ATOM     41  C   UNL d   1     -50.524  -4.116 -24.177  0.00  0.00     0.055 A 
ATOM     42 CL   UNL d   1     -50.188  -5.818 -23.899  0.00  0.00    -0.083 Cl
ATOM     43  C   UNL d   1     -51.840  -3.675 -24.399  0.00  0.00     0.028 A 
ATOM     44  C   UNL d   1     -52.006  -2.293 -24.610  0.00  0.00     0.031 A 
ENDBRANCH  35  37
ENDBRANCH  10  35
TORSDOF 9
ENDMDL
MODEL 3
REMARK VINA RESULT:      -8.3      5.001     10.068
REMARK  9 active torsions:
REMARK  status: ('A' for Active; 'I' for Inactive)
REMARK    1  A    between atoms: O_2  and  C_3 
REMARK    2  A    between atoms: C_4  and  O_5 
REMARK    3  A    between atoms: O_5  and  C_6 
REMARK    4  A    between atoms: C_6  and  C_7 
REMARK    5  A    between atoms: C_10  and  C_11 
REMARK    6  A    between atoms: C_11  and  S_12 
REMARK    7  A    between atoms: S_12  and  C_15 
REMARK    8  A    between atoms: C_32  and  N_33 
REMARK    9  A    between atoms: N_33  and  C_35 
ROOT
ATOM      1  C   UNL d   1     -51.915  -1.140 -20.900  0.00  0.00     0.102 A 
ATOM      2  C   UNL d   1     -52.372   0.158 -20.899  0.00  0.00     0.104 A 
ATOM      3  C   UNL d   1     -52.345   0.931 -22.070  0.00  0.00     0.070 A 
ATOM      4  C   UNL d   1     -51.833   0.308 -23.211  0.00  0.00     0.050 A 
ATOM      5  N   UNL d   1     -51.799   1.040 -24.323  0.00  0.00    -0.351 N 
ATOM      6  HN  UNL d   1     -52.142   2.000 -24.300  1.00  0.00     0.166 HD
ATOM      7  C   UNL d   1     -51.311   0.529 -25.490  0.00  0.00     0.182 A 
ATOM      8  N   UNL d   1     -50.857  -0.759 -25.498  0.00  0.00    -0.338 N 
ATOM      9  HN  UNL d   1     -50.487  -1.161 -26.360  1.00  0.00     0.168 HD
ATOM     10  C   UNL d   1     -50.892  -1.496 -24.380  0.00  0.00     0.119 A 
ATOM     11  C   UNL d   1     -51.378  -1.001 -23.192  0.00  0.00     0.038 A 
ATOM     12  C   UNL d   1     -51.408  -1.767 -22.023  0.00  0.00     0.057 A 
ENDROOT
BRANCH   2  13
ATOM     13  O   UNL d   1     -52.876   0.751 -19.746  0.00  0.00    -0.340 OA
BRANCH  13  14
ATOM     14  C   UNL d   1     -52.239   1.754 -19.034  0.00  0.00     0.262 C 
BRANCH  14  15
ATOM     15  C   UNL d   1     -51.686   1.393 -17.728  0.00  0.00     0.172 A 
ATOM     16  N   UNL d   1     -52.354   1.168 -16.555  0.00  0.00    -0.324 N 
ATOM     17  C   UNL d   1     -51.379   0.868 -15.644  0.00  0.00     0.118 A 
ATOM     18  HN  UNL d   1     -53.360   1.214 -16.395  1.00  0.00     0.169 HD
ATOM     19  N   UNL d   1     -50.173   0.915 -16.265  0.00  0.00    -0.246 N 
ATOM     20  O   UNL d   1     -50.410   1.228 -17.487  0.00  0.00    -0.221 OA
ATOM     21  HN  UNL d   1     -49.262   0.739 -15.845  1.00  0.00     0.196 HD
BRANCH  17  22
ATOM     22  C   UNL d   1     -51.539   0.540 -14.205  0.00  0.00     0.225 C 
BRANCH  22  23
ATOM     23  S   UNL d   1     -50.665  -1.005 -13.891  0.00  0.00     0.197 S 
ATOM     24  O   UNL d   1     -50.551  -1.670 -15.245  0.00  0.00    -0.221 OA
ATOM     25  O   UNL d   1     -49.294  -0.753 -13.365  0.00  0.00    -0.221 OA
BRANCH  23  26
ATOM     26  C   UNL d   1     -51.661  -1.925 -12.823  0.00  0.00     0.128 A 
ATOM     27  N   UNL d   1     -52.541  -1.328 -12.010  0.00  0.00    -0.357 N 
ATOM     28  C   UNL d   1     -53.345  -2.000 -11.155  0.00  0.00     0.089 A 
ATOM     29  HN  UNL d   1     -52.610  -0.311 -12.037  1.00  0.00     0.166 HD
ATOM     30  C   UNL d   1     -53.257  -3.372 -11.116  0.00  0.00     0.017 A 
ATOM     31  C   UNL d   1     -52.379  -4.043 -11.918  0.00  0.00     0.004 A 
ATOM     32  C   UNL d   1     -51.582  -3.306 -12.772  0.00  0.00     0.042 A 
ENDBRANCH  23  26
ENDBRANCH  22  23
ENDBRANCH  17  22
ENDBRANCH  14  15
ENDBRANCH  13  14
ENDBRANCH   2  13
BRANCH   1  33
ATOM     33  O   UNL d   1     -51.947  -1.899 -19.719  0.00  0.00    -0.353 OA
ATOM     34  C   UNL d   1     -50.822  -2.039 -18.890  0.00  0.00     0.210 C 
ENDBRANCH   1  33
BRANCH  10  35
ATOM     35  N   UNL d   1     -50.403  -2.845 -24.467  0.00  0.00    -0.342 N 
ATOM     36  HN  UNL d   1     -50.899  -3.646 -24.076  1.00  0.00     0.167 HD
BRANCH  35  37
ATOM     37  C   UNL d   1     -49.139  -2.956 -25.166  0.00  0.00     0.035 A 
ATOM     38  C   UNL d   1     -48.025  -2.432 -24.516  0.00  0.00     0.055 A 
ATOM     39  C   UNL d   1     -46.778  -2.530 -25.151  0.00  0.00     0.058 A 
ATOM     40 CL   UNL d   1     -45.380  -1.864 -24.317  0.00  0.00    -0.082 Cl
ATOM     41  C   UNL d   1     -46.679  -3.130 -26.379  0.00  0.00     0.055 A 
ATOM     42 CL   UNL d   1     -45.081  -3.214 -27.103  0.00  0.00    -0.083 Cl
ATOM     43  C   UNL d   1     -47.795  -3.663 -27.048  0.00  0.00     0.028 A 
ATOM     44  C   UNL d   1     -49.031  -3.548 -26.385  0.00  0.00     0.031 A 
ENDBRANCH  35  37
ENDBRANCH  10  35
TORSDOF 9
ENDMDL
MODEL 4
REMARK VINA RESULT:      -8.2      3.266      5.107
REMARK  9 active torsions:
REMARK  status: ('A' for Active; 'I' for Inactive)
REMARK    1  A    between atoms: O_2  and  C_3 
REMARK    2  A    between atoms: C_4  and  O_5 
REMARK    3  A    between atoms: O_5  and  C_6 
REMARK    4  A    between atoms: C_6  and  C_7 
REMARK    5  A    between atoms: C_10  and  C_11 
REMARK    6  A    between atoms: C_11  and  S_12 
REMARK    7  A    between atoms: S_12  and  C_15 
REMARK    8  A    between atoms: C_32  and  N_33 
REMARK    9  A    between atoms: N_33  and  C_35 
ROOT
ATOM      1  C   UNL d   1     -46.928  -3.592 -21.643  0.00  0.00     0.102 A 
ATOM      2  C   UNL d   1     -47.010  -4.921 -21.297  0.00  0.00     0.104 A 
ATOM      3  C   UNL d   1     -47.385  -5.305 -20.001  0.00  0.00     0.070 A 
ATOM      4  C   UNL d   1     -47.662  -4.269 -19.104  0.00  0.00     0.050 A 
ATOM      5  N   UNL d   1     -48.010  -4.630 -17.870  0.00  0.00    -0.351 N 
ATOM      6  HN  UNL d   1     -48.064  -5.620 -17.635  1.00  0.00     0.166 HD
ATOM      7  C   UNL d   1     -48.294  -3.696 -16.916  0.00  0.00     0.182 A 
ATOM      8  N   UNL d   1     -48.216  -2.374 -17.253  0.00  0.00    -0.338 N 
ATOM      9  HN  UNL d   1     -48.423  -1.661 -16.555  1.00  0.00     0.168 HD
ATOM     10  C   UNL d   1     -47.866  -2.013 -18.495  0.00  0.00     0.119 A 
ATOM     11  C   UNL d   1     -47.574  -2.937 -19.472  0.00  0.00     0.038 A 
ATOM     12  C   UNL d   1     -47.200  -2.559 -20.765  0.00  0.00     0.057 A 
ENDROOT
BRANCH   2  13
ATOM     13  O   UNL d   1     -46.728  -5.930 -22.212  0.00  0.00    -0.340 OA
BRANCH  13  14
ATOM     14  C   UNL d   1     -47.679  -6.753 -22.794  0.00  0.00     0.262 C 
BRANCH  14  15
ATOM     15  C   UNL d   1     -48.906  -6.116 -23.272  0.00  0.00     0.172 A 
ATOM     16  N   UNL d   1     -49.039  -4.971 -24.009  0.00  0.00    -0.324 N 
ATOM     17  C   UNL d   1     -50.386  -4.816 -24.186  0.00  0.00     0.118 A 
ATOM     18  HN  UNL d   1     -48.295  -4.364 -24.352  1.00  0.00     0.169 HD
ATOM     19  N   UNL d   1     -51.026  -5.843 -23.571  0.00  0.00    -0.246 N 
ATOM     20  O   UNL d   1     -50.112  -6.577 -23.050  0.00  0.00    -0.221 OA
ATOM     21  HN  UNL d   1     -52.033  -5.999 -23.530  1.00  0.00     0.196 HD
BRANCH  17  22
ATOM     22  C   UNL d   1     -51.098  -3.735 -24.913  0.00  0.00     0.225 C 
BRANCH  22  23
ATOM     23  S   UNL d   1     -50.333  -2.168 -24.458  0.00  0.00     0.197 S 
ATOM     24  O   UNL d   1     -49.952  -2.328 -23.003  0.00  0.00    -0.221 OA
ATOM     25  O   UNL d   1     -49.097  -1.918 -25.253  0.00  0.00    -0.221 OA
BRANCH  23  26
ATOM     26  C   UNL d   1     -51.545  -0.954 -24.659  0.00  0.00     0.128 A 
ATOM     27  N   UNL d   1     -52.695  -1.221 -25.289  0.00  0.00    -0.357 N 
ATOM     28  C   UNL d   1     -53.676  -0.308 -25.473  0.00  0.00     0.089 A 
ATOM     29  HN  UNL d   1     -52.841  -2.163 -25.650  1.00  0.00     0.166 HD
ATOM     30  C   UNL d   1     -53.486   0.964 -24.987  0.00  0.00     0.017 A 
ATOM     31  C   UNL d   1     -52.335   1.303 -24.335  0.00  0.00     0.004 A 
ATOM     32  C   UNL d   1     -51.366   0.331 -24.176  0.00  0.00     0.042 A 
ENDBRANCH  23  26
ENDBRANCH  22  23
ENDBRANCH  17  22
ENDBRANCH  14  15
ENDBRANCH  13  14
ENDBRANCH   2  13
BRANCH   1  33
ATOM     33  O   UNL d   1     -46.550  -3.224 -22.945  0.00  0.00    -0.353 OA
ATOM     34  C   UNL d   1     -45.796  -2.068 -23.205  0.00  0.00     0.210 C 
ENDBRANCH   1  33
BRANCH  10  35
ATOM     35  N   UNL d   1     -47.812  -0.604 -18.777  0.00  0.00    -0.342 N 
ATOM     36  HN  UNL d   1     -46.948  -0.062 -18.756  1.00  0.00     0.167 HD
BRANCH  35  37
ATOM     37  C   UNL d   1     -49.103  -0.030 -19.094  0.00  0.00     0.035 A 
ATOM     38  C   UNL d   1     -49.835   0.475 -18.023  0.00  0.00     0.055 A 
ATOM     39  C   UNL d   1     -51.086   1.054 -18.288  0.00  0.00     0.058 A 
ATOM     40 CL   UNL d   1     -51.999   1.688 -16.925  0.00  0.00    -0.082 Cl
ATOM     41  C   UNL d   1     -51.557   1.111 -19.573  0.00  0.00     0.055 A 
ATOM     42 CL   UNL d   1     -53.131   1.853 -19.817  0.00  0.00    -0.083 Cl
ATOM     43  C   UNL d   1     -50.829   0.604 -20.664  0.00  0.00     0.028 A 
ATOM     44  C   UNL d   1     -49.579   0.031 -20.366  0.00  0.00     0.031 A 
ENDBRANCH  35  37
ENDBRANCH  10  35
TORSDOF 9
ENDMDL
MODEL 5
REMARK VINA RESULT:      -8.0      3.243      5.478
REMARK  9 active torsions:
REMARK  status: ('A' for Active; 'I' for Inactive)
REMARK    1  A    between atoms: O_2  and  C_3 
REMARK    2  A    between atoms: C_4  and  O_5 
REMARK    3  A    between atoms: O_5  and  C_6 
REMARK    4  A    between atoms: C_6  and  C_7 
REMARK    5  A    between atoms: C_10  and  C_11 
REMARK    6  A    between atoms: C_11  and  S_12 
REMARK    7  A    between atoms: S_12  and  C_15 
REMARK    8  A    between atoms: C_32  and  N_33 
REMARK    9  A    between atoms: N_33  and  C_35 
ROOT
ATOM      1  C   UNL d   1     -51.505   1.490 -17.450  0.00  0.00     0.102 A 
ATOM      2  C   UNL d   1     -51.389   1.243 -18.799  0.00  0.00     0.104 A 
ATOM      3  C   UNL d   1     -50.392   0.387 -19.290  0.00  0.00     0.070 A 
ATOM      4  C   UNL d   1     -49.542  -0.183 -18.339  0.00  0.00     0.050 A 
ATOM      5  N   UNL d   1     -48.588  -0.990 -18.802  0.00  0.00    -0.351 N 
ATOM      6  HN  UNL d   1     -48.520  -1.160 -19.805  1.00  0.00     0.166 HD
ATOM      7  C   UNL d   1     -47.702  -1.592 -17.957  0.00  0.00     0.182 A 
ATOM      8  N   UNL d   1     -47.812  -1.352 -16.617  0.00  0.00    -0.338 N 
ATOM      9  HN  UNL d   1     -47.159  -1.791 -15.968  1.00  0.00     0.168 HD
ATOM     10  C   UNL d   1     -48.771  -0.540 -16.151  0.00  0.00     0.119 A 
ATOM     11  C   UNL d   1     -49.675   0.078 -16.985  0.00  0.00     0.038 A 
ATOM     12  C   UNL d   1     -50.670   0.931 -16.500  0.00  0.00     0.057 A 
ENDROOT
BRANCH   2  13
ATOM     13  O   UNL d   1     -52.251   1.826 -19.722  0.00  0.00    -0.340 OA
BRANCH  13  14
ATOM     14  C   UNL d   1     -53.232   1.143 -20.422  0.00  0.00     0.262 C 
BRANCH  14  15
ATOM     15  C   UNL d   1     -53.065   1.040 -21.872  0.00  0.00     0.172 A 
ATOM     16  N   UNL d   1     -51.972   0.612 -22.574  0.00  0.00    -0.324 N 
ATOM     17  C   UNL d   1     -52.332   0.712 -23.889  0.00  0.00     0.118 A 
ATOM     18  HN  UNL d   1     -51.080   0.290 -22.198  1.00  0.00     0.169 HD
ATOM     19  N   UNL d   1     -53.603   1.183 -23.957  0.00  0.00    -0.246 N 
ATOM     20  O   UNL d   1     -53.987   1.360 -22.745  0.00  0.00    -0.221 OA
ATOM     21  HN  UNL d   1     -54.145   1.363 -24.802  1.00  0.00     0.196 HD
BRANCH  17  22
ATOM     22  C   UNL d   1     -51.525   0.380 -25.089  0.00  0.00     0.225 C 
BRANCH  22  23
ATOM     23  S   UNL d   1     -51.558  -1.409 -25.300  0.00  0.00     0.197 S 
ATOM     24  O   UNL d   1     -52.690  -1.885 -24.417  0.00  0.00    -0.221 OA
ATOM     25  O   UNL d   1     -51.861  -1.782 -26.711  0.00  0.00    -0.221 OA
BRANCH  23  26
ATOM     26  C   UNL d   1     -50.035  -1.998 -24.738  0.00  0.00     0.128 A 
ATOM     27  N   UNL d   1     -49.091  -2.406 -25.594  0.00  0.00    -0.357 N 
ATOM     28  C   UNL d   1     -47.883  -2.876 -25.208  0.00  0.00     0.089 A 
ATOM     29  HN  UNL d   1     -49.293  -2.361 -26.593  1.00  0.00     0.166 HD
ATOM     30  C   UNL d   1     -47.605  -2.938 -23.863  0.00  0.00     0.017 A 
ATOM     31  C   UNL d   1     -48.524  -2.538 -22.935  0.00  0.00     0.004 A 
ATOM     32  C   UNL d   1     -49.742  -2.068 -23.387  0.00  0.00     0.042 A 
ENDBRANCH  23  26
ENDBRANCH  22  23
ENDBRANCH  17  22
ENDBRANCH  14  15
ENDBRANCH  13  14
ENDBRANCH   2  13
BRANCH   1  33
ATOM     33  O   UNL d   1     -52.507   2.351 -16.975  0.00  0.00    -0.353 OA
ATOM     34  C   UNL d   1     -52.220   3.443 -16.140  0.00  0.00     0.210 C 
ENDBRANCH   1  33
BRANCH  10  35
ATOM     35  N   UNL d   1     -48.828  -0.341 -14.729  0.00  0.00    -0.342 N 
ATOM     36  HN  UNL d   1     -48.280   0.367 -14.241  1.00  0.00     0.167 HD
BRANCH  35  37
ATOM     37  C   UNL d   1     -49.741  -1.242 -14.057  0.00  0.00     0.035 A 
ATOM     38  C   UNL d   1     -50.732  -0.651 -13.278  0.00  0.00     0.055 A 
ATOM     39  C   UNL d   1     -51.647  -1.487 -12.620  0.00  0.00     0.058 A 
ATOM     40 CL   UNL d   1     -52.893  -0.726 -11.640  0.00  0.00    -0.082 Cl
ATOM     41  C   UNL d   1     -51.552  -2.847 -12.753  0.00  0.00     0.055 A 
ATOM     42 CL   UNL d   1     -52.738  -3.821 -11.898  0.00  0.00    -0.083 Cl
ATOM     43  C   UNL d   1     -50.556  -3.458 -13.536  0.00  0.00     0.028 A 
ATOM     44  C   UNL d   1     -49.655  -2.593 -14.183  0.00  0.00     0.031 A 
ENDBRANCH  35  37
ENDBRANCH  10  35
TORSDOF 9
ENDMDL
MODEL 6
REMARK VINA RESULT:      -7.9      5.057      8.650
REMARK  9 active torsions:
REMARK  status: ('A' for Active; 'I' for Inactive)
REMARK    1  A    between atoms: O_2  and  C_3 
REMARK    2  A    between atoms: C_4  and  O_5 
REMARK    3  A    between atoms: O_5  and  C_6 
REMARK    4  A    between atoms: C_6  and  C_7 
REMARK    5  A    between atoms: C_10  and  C_11 
REMARK    6  A    between atoms: C_11  and  S_12 
REMARK    7  A    between atoms: S_12  and  C_15 
REMARK    8  A    between atoms: C_32  and  N_33 
REMARK    9  A    between atoms: N_33  and  C_35 
ROOT
ATOM      1  C   UNL d   1     -47.954  -4.240 -20.646  0.00  0.00     0.102 A 
ATOM      2  C   UNL d   1     -49.090  -3.803 -20.004  0.00  0.00     0.104 A 
ATOM      3  C   UNL d   1     -50.350  -3.931 -20.607  0.00  0.00     0.070 A 
ATOM      4  C   UNL d   1     -50.374  -4.518 -21.875  0.00  0.00     0.050 A 
ATOM      5  N   UNL d   1     -51.567  -4.633 -22.454  0.00  0.00    -0.351 N 
ATOM      6  HN  UNL d   1     -52.396  -4.303 -21.961  1.00  0.00     0.166 HD
ATOM      7  C   UNL d   1     -51.699  -5.185 -23.695  0.00  0.00     0.182 A 
ATOM      8  N   UNL d   1     -50.576  -5.622 -24.337  0.00  0.00    -0.338 N 
ATOM      9  HN  UNL d   1     -50.652  -6.038 -25.265  1.00  0.00     0.168 HD
ATOM     10  C   UNL d   1     -49.375  -5.506 -23.754  0.00  0.00     0.119 A 
ATOM     11  C   UNL d   1     -49.218  -4.952 -22.505  0.00  0.00     0.038 A 
ATOM     12  C   UNL d   1     -47.965  -4.823 -21.899  0.00  0.00     0.057 A 
ENDROOT
BRANCH   2  13
ATOM     13  O   UNL d   1     -49.034  -3.223 -18.741  0.00  0.00    -0.340 OA
BRANCH  13  14
ATOM     14  C   UNL d   1     -48.614  -1.928 -18.488  0.00  0.00     0.262 C 
BRANCH  14  15
ATOM     15  C   UNL d   1     -49.568  -0.853 -18.760  0.00  0.00     0.172 A 
ATOM     16  N   UNL d   1     -49.824  -0.222 -19.947  0.00  0.00    -0.324 N 
ATOM     17  C   UNL d   1     -50.794   0.698 -19.659  0.00  0.00     0.118 A 
ATOM     18  HN  UNL d   1     -49.386  -0.399 -20.850  1.00  0.00     0.169 HD
ATOM     19  N   UNL d   1     -51.100   0.608 -18.339  0.00  0.00    -0.246 N 
ATOM     20  O   UNL d   1     -50.352  -0.318 -17.858  0.00  0.00    -0.221 OA
ATOM     21  HN  UNL d   1     -51.786   1.165 -17.831  1.00  0.00     0.196 HD
BRANCH  17  22
ATOM     22  C   UNL d   1     -51.446   1.663 -20.579  0.00  0.00     0.225 C 
BRANCH  22  23
ATOM     23  S   UNL d   1     -52.726   0.780 -21.489  0.00  0.00     0.197 S 
ATOM     24  O   UNL d   1     -53.113  -0.377 -20.593  0.00  0.00    -0.221 OA
ATOM     25  O   UNL d   1     -53.925   1.638 -21.706  0.00  0.00    -0.221 OA
BRANCH  23  26
ATOM     26  C   UNL d   1     -51.996   0.223 -22.950  0.00  0.00     0.128 A 
ATOM     27  N   UNL d   1     -51.982   0.983 -24.051  0.00  0.00    -0.357 N 
ATOM     28  C   UNL d   1     -51.423   0.597 -25.221  0.00  0.00     0.089 A 
ATOM     29  HN  UNL d   1     -52.415   1.906 -24.006  1.00  0.00     0.166 HD
ATOM     30  C   UNL d   1     -50.837  -0.645 -25.287  0.00  0.00     0.017 A 
ATOM     31  C   UNL d   1     -50.817  -1.472 -24.200  0.00  0.00     0.004 A 
ATOM     32  C   UNL d   1     -51.403  -1.025 -23.032  0.00  0.00     0.042 A 
ENDBRANCH  23  26
ENDBRANCH  22  23
ENDBRANCH  17  22
ENDBRANCH  14  15
ENDBRANCH  13  14
ENDBRANCH   2  13
BRANCH   1  33
ATOM     33  O   UNL d   1     -46.699  -4.104 -20.030  0.00  0.00    -0.353 OA
ATOM     34  C   UNL d   1     -45.753  -3.161 -20.463  0.00  0.00     0.210 C 
ENDBRANCH   1  33
BRANCH  10  35
ATOM     35  N   UNL d   1     -48.240  -5.994 -24.488  0.00  0.00    -0.342 N 
ATOM     36  HN  UNL d   1     -47.963  -6.976 -24.502  1.00  0.00     0.167 HD
BRANCH  35  37
ATOM     37  C   UNL d   1     -47.528  -4.957 -25.206  0.00  0.00     0.035 A 
ATOM     38  C   UNL d   1     -46.138  -5.032 -25.183  0.00  0.00     0.055 A 
ATOM     39  C   UNL d   1     -45.409  -4.054 -25.878  0.00  0.00     0.058 A 
ATOM     40 CL   UNL d   1     -43.654  -4.162 -25.841  0.00  0.00    -0.082 Cl
ATOM     41  C   UNL d   1     -46.066  -3.061 -26.556  0.00  0.00     0.055 A 
ATOM     42 CL   UNL d   1     -45.079  -1.879 -27.402  0.00  0.00    -0.083 Cl
ATOM     43  C   UNL d   1     -47.469  -2.973 -26.587  0.00  0.00     0.028 A 
ATOM     44  C   UNL d   1     -48.171  -3.967 -25.881  0.00  0.00     0.031 A 
ENDBRANCH  35  37
ENDBRANCH  10  35
TORSDOF 9
ENDMDL
MODEL 7
REMARK VINA RESULT:      -7.9      3.639      7.671
REMARK  9 active torsions:
REMARK  status: ('A' for Active; 'I' for Inactive)
REMARK    1  A    between atoms: O_2  and  C_3 
REMARK    2  A    between atoms: C_4  and  O_5 
REMARK    3  A    between atoms: O_5  and  C_6 
REMARK    4  A    between atoms: C_6  and  C_7 
REMARK    5  A    between atoms: C_10  and  C_11 
REMARK    6  A    between atoms: C_11  and  S_12 
REMARK    7  A    between atoms: S_12  and  C_15 
REMARK    8  A    between atoms: C_32  and  N_33 
REMARK    9  A    between atoms: N_33  and  C_35 
ROOT
ATOM      1  C   UNL d   1     -47.215  -4.002 -23.031  0.00  0.00     0.102 A 
ATOM      2  C   UNL d   1     -47.392  -5.324 -22.693  0.00  0.00     0.104 A 
ATOM      3  C   UNL d   1     -48.642  -5.943 -22.843  0.00  0.00     0.070 A 
ATOM      4  C   UNL d   1     -49.672  -5.145 -23.346  0.00  0.00     0.050 A 
ATOM      5  N   UNL d   1     -50.862  -5.727 -23.482  0.00  0.00    -0.351 N 
ATOM      6  HN  UNL d   1     -50.972  -6.707 -23.226  1.00  0.00     0.166 HD
ATOM      7  C   UNL d   1     -51.937  -5.032 -23.958  0.00  0.00     0.182 A 
ATOM      8  N   UNL d   1     -51.768  -3.720 -24.296  0.00  0.00    -0.338 N 
ATOM      9  HN  UNL d   1     -52.558  -3.183 -24.653  1.00  0.00     0.168 HD
ATOM     10  C   UNL d   1     -50.570  -3.135 -24.159  0.00  0.00     0.119 A 
ATOM     11  C   UNL d   1     -49.474  -3.815 -23.681  0.00  0.00     0.038 A 
ATOM     12  C   UNL d   1     -48.226  -3.203 -23.530  0.00  0.00     0.057 A 
ENDROOT
BRANCH   2  13
ATOM     13  O   UNL d   1     -46.346  -6.094 -22.195  0.00  0.00    -0.340 OA
BRANCH  13  14
ATOM     14  C   UNL d   1     -45.918  -6.081 -20.878  0.00  0.00     0.262 C 
BRANCH  14  15
ATOM     15  C   UNL d   1     -46.877  -5.625 -19.871  0.00  0.00     0.172 A 
ATOM     16  N   UNL d   1     -47.190  -4.342 -19.514  0.00  0.00    -0.324 N 
ATOM     17  C   UNL d   1     -48.135  -4.466 -18.534  0.00  0.00     0.118 A 
ATOM     18  HN  UNL d   1     -46.801  -3.480 -19.896  1.00  0.00     0.169 HD
ATOM     19  N   UNL d   1     -48.371  -5.786 -18.322  0.00  0.00    -0.246 N 
ATOM     20  O   UNL d   1     -47.607  -6.423 -19.133  0.00  0.00    -0.221 OA
ATOM     21  HN  UNL d   1     -49.025  -6.191 -17.653  1.00  0.00     0.196 HD
BRANCH  17  22
ATOM     22  C   UNL d   1     -48.826  -3.388 -17.784  0.00  0.00     0.225 C 
BRANCH  22  23
ATOM     23  S   UNL d   1     -48.175  -1.809 -18.361  0.00  0.00     0.197 S 
ATOM     24  O   UNL d   1     -46.719  -1.816 -17.953  0.00  0.00    -0.221 OA
ATOM     25  O   UNL d   1     -48.256  -1.701 -19.845  0.00  0.00    -0.221 OA
BRANCH  23  26
ATOM     26  C   UNL d   1     -49.055  -0.581 -17.526  0.00  0.00     0.128 A 
ATOM     27  N   UNL d   1     -48.652  -0.130 -16.332  0.00  0.00    -0.357 N 
ATOM     28  C   UNL d   1     -49.303   0.829 -15.636  0.00  0.00     0.089 A 
ATOM     29  HN  UNL d   1     -47.808  -0.532 -15.924  1.00  0.00     0.166 HD
ATOM     30  C   UNL d   1     -50.441   1.376 -16.181  0.00  0.00     0.017 A 
ATOM     31  C   UNL d   1     -50.907   0.961 -17.396  0.00  0.00     0.004 A 
ATOM     32  C   UNL d   1     -50.202  -0.023 -18.062  0.00  0.00     0.042 A 
ENDBRANCH  23  26
ENDBRANCH  22  23
ENDBRANCH  17  22
ENDBRANCH  14  15
ENDBRANCH  13  14
ENDBRANCH   2  13
BRANCH   1  33
ATOM     33  O   UNL d   1     -45.958  -3.396 -22.873  0.00  0.00    -0.353 OA
ATOM     34  C   UNL d   1     -45.818  -2.033 -22.565  0.00  0.00     0.210 C 
ENDBRANCH   1  33
BRANCH  10  35
ATOM     35  N   UNL d   1     -50.468  -1.753 -24.541  0.00  0.00    -0.342 N 
ATOM     36  HN  UNL d   1     -49.962  -1.438 -25.369  1.00  0.00     0.167 HD
BRANCH  35  37
ATOM     37  C   UNL d   1     -51.154  -0.853 -23.638  0.00  0.00     0.035 A 
ATOM     38  C   UNL d   1     -52.190  -0.100 -24.185  0.00  0.00     0.055 A 
ATOM     39  C   UNL d   1     -52.891   0.776 -23.341  0.00  0.00     0.058 A 
ATOM     40 CL   UNL d   1     -54.198   1.719 -24.045  0.00  0.00    -0.082 Cl
ATOM     41  C   UNL d   1     -52.551   0.873 -22.018  0.00  0.00     0.055 A 
ATOM     42 CL   UNL d   1     -53.480   1.991 -21.031  0.00  0.00    -0.083 Cl
ATOM     43  C   UNL d   1     -51.506   0.120 -21.453  0.00  0.00     0.028 A 
ATOM     44  C   UNL d   1     -50.823  -0.749 -22.324  0.00  0.00     0.031 A 
ENDBRANCH  35  37
ENDBRANCH  10  35
TORSDOF 9
ENDMDL
MODEL 8
REMARK VINA RESULT:      -7.8      2.997      5.220
REMARK  9 active torsions:
REMARK  status: ('A' for Active; 'I' for Inactive)
REMARK    1  A    between atoms: O_2  and  C_3 
REMARK    2  A    between atoms: C_4  and  O_5 
REMARK    3  A    between atoms: O_5  and  C_6 
REMARK    4  A    between atoms: C_6  and  C_7 
REMARK    5  A    between atoms: C_10  and  C_11 
REMARK    6  A    between atoms: C_11  and  S_12 
REMARK    7  A    between atoms: S_12  and  C_15 
REMARK    8  A    between atoms: C_32  and  N_33 
REMARK    9  A    between atoms: N_33  and  C_35 
ROOT
ATOM      1  C   UNL d   1     -51.198  -0.290 -18.825  0.00  0.00     0.102 A 
ATOM      2  C   UNL d   1     -52.090   0.579 -19.410  0.00  0.00     0.104 A 
ATOM      3  C   UNL d   1     -52.530   1.724 -18.731  0.00  0.00     0.070 A 
ATOM      4  C   UNL d   1     -52.014   1.919 -17.447  0.00  0.00     0.050 A 
ATOM      5  N   UNL d   1     -52.435   3.002 -16.796  0.00  0.00    -0.351 N 
ATOM      6  HN  UNL d   1     -53.096   3.632 -17.248  1.00  0.00     0.166 HD
ATOM      7  C   UNL d   1     -51.997   3.281 -15.534  0.00  0.00     0.182 A 
ATOM      8  N   UNL d   1     -51.111   2.423 -14.946  0.00  0.00    -0.338 N 
ATOM      9  HN  UNL d   1     -50.772   2.613 -14.003  1.00  0.00     0.168 HD
ATOM     10  C   UNL d   1     -50.687   1.335 -15.602  0.00  0.00     0.119 A 
ATOM     11  C   UNL d   1     -51.116   1.034 -16.874  0.00  0.00     0.038 A 
ATOM     12  C   UNL d   1     -50.680  -0.107 -17.556  0.00  0.00     0.057 A 
ENDROOT
BRANCH   2  13
ATOM     13  O   UNL d   1     -52.586   0.357 -20.691  0.00  0.00    -0.340 OA
BRANCH  13  14
ATOM     14  C   UNL d   1     -52.819   1.352 -21.627  0.00  0.00     0.262 C 
BRANCH  14  15
ATOM     15  C   UNL d   1     -52.696   0.980 -23.037  0.00  0.00     0.172 A 
ATOM     16  N   UNL d   1     -51.614   0.449 -23.685  0.00  0.00    -0.324 N 
ATOM     17  C   UNL d   1     -52.019   0.291 -24.982  0.00  0.00     0.118 A 
ATOM     18  HN  UNL d   1     -50.703   0.221 -23.288  1.00  0.00     0.169 HD
ATOM     19  N   UNL d   1     -53.304   0.716 -25.091  0.00  0.00    -0.246 N 
ATOM     20  O   UNL d   1     -53.653   1.111 -23.920  0.00  0.00    -0.221 OA
ATOM     21  HN  UNL d   1     -53.876   0.723 -25.934  1.00  0.00     0.196 HD
BRANCH  17  22
ATOM     22  C   UNL d   1     -51.242  -0.245 -26.127  0.00  0.00     0.225 C 
BRANCH  22  23
ATOM     23  S   UNL d   1     -51.425  -2.038 -26.127  0.00  0.00     0.197 S 
ATOM     24  O   UNL d   1     -52.381  -2.332 -24.992  0.00  0.00    -0.221 OA
ATOM     25  O   UNL d   1     -52.029  -2.520 -27.400  0.00  0.00    -0.221 OA
BRANCH  23  26
ATOM     26  C   UNL d   1     -49.858  -2.691 -25.810  0.00  0.00     0.128 A 
ATOM     27  N   UNL d   1     -49.345  -3.662 -26.575  0.00  0.00    -0.357 N 
ATOM     28  C   UNL d   1     -48.124  -4.209 -26.371  0.00  0.00     0.089 A 
ATOM     29  HN  UNL d   1     -49.904  -4.010 -27.354  1.00  0.00     0.166 HD
ATOM     30  C   UNL d   1     -47.366  -3.743 -25.324  0.00  0.00     0.017 A 
ATOM     31  C   UNL d   1     -47.830  -2.754 -24.504  0.00  0.00     0.004 A 
ATOM     32  C   UNL d   1     -49.083  -2.233 -24.759  0.00  0.00     0.042 A 
ENDBRANCH  23  26
ENDBRANCH  22  23
ENDBRANCH  17  22
ENDBRANCH  14  15
ENDBRANCH  13  14
ENDBRANCH   2  13
BRANCH   1  33
ATOM     33  O   UNL d   1     -50.769  -1.434 -19.517  0.00  0.00    -0.353 OA
ATOM     34  C   UNL d   1     -49.795  -1.375 -20.527  0.00  0.00     0.210 C 
ENDBRANCH   1  33
BRANCH  10  35
ATOM     35  N   UNL d   1     -49.749   0.484 -14.923  0.00  0.00    -0.342 N 
ATOM     36  HN  UNL d   1     -48.741   0.638 -14.936  1.00  0.00     0.167 HD
BRANCH  35  37
ATOM     37  C   UNL d   1     -50.376  -0.615 -14.215  0.00  0.00     0.035 A 
ATOM     38  C   UNL d   1     -51.307  -0.270 -13.239  0.00  0.00     0.055 A 
ATOM     39  C   UNL d   1     -51.948  -1.304 -12.539  0.00  0.00     0.058 A 
ATOM     40 CL   UNL d   1     -53.122  -0.853 -11.310  0.00  0.00    -0.082 Cl
ATOM     41  C   UNL d   1     -51.653  -2.611 -12.823  0.00  0.00     0.055 A 
ATOM     42 CL   UNL d   1     -52.502  -3.843 -11.902  0.00  0.00    -0.083 Cl
ATOM     43  C   UNL d   1     -50.714  -2.973 -13.805  0.00  0.00     0.028 A 
ATOM     44  C   UNL d   1     -50.089  -1.915 -14.489  0.00  0.00     0.031 A 
ENDBRANCH  35  37
ENDBRANCH  10  35
TORSDOF 9
ENDMDL
MODEL 9
REMARK VINA RESULT:      -7.8      2.893      5.180
REMARK  9 active torsions:
REMARK  status: ('A' for Active; 'I' for Inactive)
REMARK    1  A    between atoms: O_2  and  C_3 
REMARK    2  A    between atoms: C_4  and  O_5 
REMARK    3  A    between atoms: O_5  and  C_6 
REMARK    4  A    between atoms: C_6  and  C_7 
REMARK    5  A    between atoms: C_10  and  C_11 
REMARK    6  A    between atoms: C_11  and  S_12 
REMARK    7  A    between atoms: S_12  and  C_15 
REMARK    8  A    between atoms: C_32  and  N_33 
REMARK    9  A    between atoms: N_33  and  C_35 
ROOT
ATOM      1  C   UNL d   1     -51.184  -0.389 -19.596  0.00  0.00     0.102 A 
ATOM      2  C   UNL d   1     -52.102   0.484 -20.131  0.00  0.00     0.104 A 
ATOM      3  C   UNL d   1     -52.552   1.593 -19.399  0.00  0.00     0.070 A 
ATOM      4  C   UNL d   1     -52.017   1.748 -18.117  0.00  0.00     0.050 A 
ATOM      5  N   UNL d   1     -52.447   2.795 -17.416  0.00  0.00    -0.351 N 
ATOM      6  HN  UNL d   1     -53.129   3.429 -17.831  1.00  0.00     0.166 HD
ATOM      7  C   UNL d   1     -51.992   3.032 -16.151  0.00  0.00     0.182 A 
ATOM      8  N   UNL d   1     -51.079   2.170 -15.614  0.00  0.00    -0.338 N 
ATOM      9  HN  UNL d   1     -50.727   2.328 -14.670  1.00  0.00     0.168 HD
ATOM     10  C   UNL d   1     -50.646   1.117 -16.320  0.00  0.00     0.119 A 
ATOM     11  C   UNL d   1     -51.092   0.858 -17.596  0.00  0.00     0.038 A 
ATOM     12  C   UNL d   1     -50.647  -0.246 -18.330  0.00  0.00     0.057 A 
ENDROOT
BRANCH   2  13
ATOM     13  O   UNL d   1     -52.618   0.305 -21.410  0.00  0.00    -0.340 OA
BRANCH  13  14
ATOM     14  C   UNL d   1     -52.034   0.791 -22.569  0.00  0.00     0.262 C 
BRANCH  14  15
ATOM     15  C   UNL d   1     -51.560  -0.196 -23.540  0.00  0.00     0.172 A 
ATOM     16  N   UNL d   1     -51.423  -1.548 -23.380  0.00  0.00    -0.324 N 
ATOM     17  C   UNL d   1     -50.944  -2.000 -24.579  0.00  0.00     0.118 A 
ATOM     18  HN  UNL d   1     -51.631  -2.099 -22.548  1.00  0.00     0.169 HD
ATOM     19  N   UNL d   1     -50.806  -0.943 -25.419  0.00  0.00    -0.246 N 
ATOM     20  O   UNL d   1     -51.181   0.093 -24.759  0.00  0.00    -0.221 OA
ATOM     21  HN  UNL d   1     -50.471  -0.966 -26.381  1.00  0.00     0.196 HD
BRANCH  17  22
ATOM     22  C   UNL d   1     -50.610  -3.394 -24.966  0.00  0.00     0.225 C 
BRANCH  22  23
ATOM     23  S   UNL d   1     -48.854  -3.648 -24.651  0.00  0.00     0.197 S 
ATOM     24  O   UNL d   1     -48.410  -4.643 -25.700  0.00  0.00    -0.221 OA
ATOM     25  O   UNL d   1     -48.083  -2.386 -24.831  0.00  0.00    -0.221 OA
BRANCH  23  26
ATOM     26  C   UNL d   1     -48.732  -4.316 -23.063  0.00  0.00     0.128 A 
ATOM     27  N   UNL d   1     -49.415  -5.413 -22.719  0.00  0.00    -0.357 N 
ATOM     28  C   UNL d   1     -49.356  -5.977 -21.490  0.00  0.00     0.089 A 
ATOM     29  HN  UNL d   1     -50.014  -5.849 -23.420  1.00  0.00     0.166 HD
ATOM     30  C   UNL d   1     -48.550  -5.394 -20.541  0.00  0.00     0.017 A 
ATOM     31  C   UNL d   1     -47.826  -4.272 -20.827  0.00  0.00     0.004 A 
ATOM     32  C   UNL d   1     -47.926  -3.739 -22.097  0.00  0.00     0.042 A 
ENDBRANCH  23  26
ENDBRANCH  22  23
ENDBRANCH  17  22
ENDBRANCH  14  15
ENDBRANCH  13  14
ENDBRANCH   2  13
BRANCH   1  33
ATOM     33  O   UNL d   1     -50.745  -1.495 -20.341  0.00  0.00    -0.353 OA
ATOM     34  C   UNL d   1     -51.138  -2.808 -20.031  0.00  0.00     0.210 C 
ENDBRANCH   1  33
BRANCH  10  35
ATOM     35  N   UNL d   1     -49.681   0.258 -15.691  0.00  0.00    -0.342 N 
ATOM     36  HN  UNL d   1     -48.673   0.386 -15.785  1.00  0.00     0.167 HD
BRANCH  35  37
ATOM     37  C   UNL d   1     -50.277  -0.807 -14.911  0.00  0.00     0.035 A 
ATOM     38  C   UNL d   1     -51.028  -0.416 -13.805  0.00  0.00     0.055 A 
ATOM     39  C   UNL d   1     -51.635  -1.415 -13.029  0.00  0.00     0.058 A 
ATOM     40 CL   UNL d   1     -52.580  -0.907 -11.635  0.00  0.00    -0.082 Cl
ATOM     41  C   UNL d   1     -51.484  -2.734 -13.367  0.00  0.00     0.055 A 
ATOM     42 CL   UNL d   1     -52.279  -3.921 -12.344  0.00  0.00    -0.083 Cl
ATOM     43  C   UNL d   1     -50.728  -3.143 -14.481  0.00  0.00     0.028 A 
ATOM     44  C   UNL d   1     -50.132  -2.118 -15.238  0.00  0.00     0.031 A 
ENDBRANCH  35  37
ENDBRANCH  10  35
TORSDOF 9
ENDMDL
