MODEL 1
REMARK VINA RESULT:      -8.2      0.000      0.000
REMARK  6 active torsions:
REMARK  status: ('A' for Active; 'I' for Inactive)
REMARK    1  A    between atoms: O_2  and  C_3 
REMARK    2  A    between atoms: C_8  and  O_9 
REMARK    3  A    between atoms: O_9  and  C_10 
REMARK    4  A    between atoms: C_10  and  C_11 
REMARK    5  A    between atoms: C_26  and  N_27 
REMARK    6  A    between atoms: N_27  and  C_29 
ROOT
ATOM      1  C   UNL d   1     -49.618   0.002 -16.776  0.00  0.00     0.102 A 
ATOM      2  C   UNL d   1     -49.751   0.084 -18.150  0.00  0.00     0.057 A 
ATOM      3  C   UNL d   1     -50.800   0.802 -18.709  0.00  0.00     0.038 A 
ATOM      4  C   UNL d   1     -51.742   1.456 -17.943  0.00  0.00     0.050 A 
ATOM      5  C   UNL d   1     -51.597   1.366 -16.568  0.00  0.00     0.070 A 
ATOM      6  C   UNL d   1     -50.553   0.652 -15.996  0.00  0.00     0.104 A 
ATOM      7  N   UNL d   1     -52.747   2.143 -18.519  0.00  0.00    -0.351 N 
ATOM      8  HN  UNL d   1     -53.428   2.616 -17.926  1.00  0.00     0.166 HD
ATOM      9  C   UNL d   1     -52.875   2.223 -19.864  0.00  0.00     0.182 A 
ATOM     10  N   UNL d   1     -51.966   1.590 -20.625  0.00  0.00    -0.338 N 
ATOM     11  HN  UNL d   1     -52.054   1.644 -21.640  1.00  0.00     0.168 HD
ATOM     12  C   UNL d   1     -50.942   0.890 -20.099  0.00  0.00     0.119 A 
ENDROOT
BRANCH   6  13
ATOM     13  O   UNL d   1     -50.422   0.571 -14.597  0.00  0.00    -0.346 OA
BRANCH  13  14
ATOM     14  C   UNL d   1     -51.261  -0.205 -13.803  0.00  0.00     0.209 C 
BRANCH  14  15
ATOM     15  C   UNL d   1     -50.482  -1.169 -12.934  0.00  0.00     0.174 C 
ATOM     16  C   UNL d   1     -50.288  -2.476 -13.668  0.00  0.00     0.307 C 
ATOM     17  N   UNL d   1     -50.640  -3.601 -12.857  0.00  0.00     0.102 N 
ATOM     18  C   UNL d   1     -49.607  -4.040 -11.953  0.00  0.00     0.299 C 
ATOM     19  C   UNL d   1     -51.937  -3.533 -12.251  0.00  0.00     0.270 C 
ATOM     20  C   UNL d   1     -49.760  -3.485 -10.560  0.00  0.00     0.198 C 
ATOM     21  O   UNL d   1     -51.057  -3.521 -10.088  0.00  0.00    -0.387 OA
ATOM     22  C   UNL d   1     -51.865  -4.280 -10.915  0.00  0.00     0.205 C 
ATOM     23  C   UNL d   1     -52.268  -2.099 -11.904  0.00  0.00     0.206 C 
ATOM     24  O   UNL d   1     -51.106  -1.358 -11.698  0.00  0.00    -0.380 OA
ENDBRANCH  14  15
ENDBRANCH  13  14
ENDBRANCH   6  13
BRANCH   1  25
ATOM     25  O   UNL d   1     -48.572  -0.714 -16.213  0.00  0.00    -0.353 OA
ATOM     26  C   UNL d   1     -48.290  -1.995 -16.768  0.00  0.00     0.210 C 
ENDBRANCH   1  25
BRANCH  12  27
ATOM     27  N   UNL d   1     -49.992   0.230 -20.955  0.00  0.00    -0.339 N 
ATOM     28  HN  UNL d   1     -49.062   0.628 -21.083  1.00  0.00     0.167 HD
BRANCH  27  29
ATOM     29  C   UNL d   1     -50.349  -0.975 -21.625  0.00  0.00     0.074 A 
ATOM     30  C   UNL d   1     -50.141  -2.222 -21.044  0.00  0.00     0.058 A 
ATOM     31  C   UNL d   1     -50.493  -3.398 -21.707  0.00  0.00     0.053 A 
ATOM     32 CL   UNL d   1     -50.211  -4.952 -20.937  0.00  0.00    -0.083 Cl
ATOM     33  C   UNL d   1     -51.057  -3.288 -22.960  0.00  0.00     0.035 A 
ATOM     34 BR   UNL d   1     -51.547  -4.898 -23.883  0.00  0.00    -0.049 Br
ATOM     35  C   UNL d   1     -51.264  -2.036 -23.535  0.00  0.00     0.065 A 
ATOM     36  C   UNL d   1     -50.913  -0.864 -22.876  0.00  0.00     0.144 A 
ATOM     37  F   UNL d   1     -51.131   0.324 -23.473  0.00  0.00    -0.204 F 
ENDBRANCH  27  29
ENDBRANCH  12  27
TORSDOF 6
ENDMDL
MODEL 2
REMARK VINA RESULT:      -8.1      1.246      1.490
REMARK  6 active torsions:
REMARK  status: ('A' for Active; 'I' for Inactive)
REMARK    1  A    between atoms: O_2  and  C_3 
REMARK    2  A    between atoms: C_8  and  O_9 
REMARK    3  A    between atoms: O_9  and  C_10 
REMARK    4  A    between atoms: C_10  and  C_11 
REMARK    5  A    between atoms: C_26  and  N_27 
REMARK    6  A    between atoms: N_27  and  C_29 
ROOT
ATOM      1  C   UNL d   1     -49.652   0.053 -16.721  0.00  0.00     0.102 A 
ATOM      2  C   UNL d   1     -49.764   0.112 -18.098  0.00  0.00     0.057 A 
ATOM      3  C   UNL d   1     -50.808   0.814 -18.686  0.00  0.00     0.038 A 
ATOM      4  C   UNL d   1     -51.766   1.475 -17.946  0.00  0.00     0.050 A 
ATOM      5  C   UNL d   1     -51.642   1.408 -16.567  0.00  0.00     0.070 A 
ATOM      6  C   UNL d   1     -50.603   0.710 -15.967  0.00  0.00     0.104 A 
ATOM      7  N   UNL d   1     -52.765   2.146 -18.548  0.00  0.00    -0.351 N 
ATOM      8  HN  UNL d   1     -53.459   2.625 -17.974  1.00  0.00     0.166 HD
ATOM      9  C   UNL d   1     -52.873   2.203 -19.896  0.00  0.00     0.182 A 
ATOM     10  N   UNL d   1     -51.948   1.564 -20.633  0.00  0.00    -0.338 N 
ATOM     11  HN  UNL d   1     -52.020   1.600 -21.650  1.00  0.00     0.168 HD
ATOM     12  C   UNL d   1     -50.929   0.878 -20.079  0.00  0.00     0.119 A 
ENDROOT
BRANCH   6  13
ATOM     13  O   UNL d   1     -50.494   0.653 -14.565  0.00  0.00    -0.346 OA
BRANCH  13  14
ATOM     14  C   UNL d   1     -51.329  -0.130 -13.773  0.00  0.00     0.209 C 
BRANCH  14  15
ATOM     15  C   UNL d   1     -50.551  -1.143 -12.962  0.00  0.00     0.174 C 
ATOM     16  C   UNL d   1     -50.485  -2.454 -13.711  0.00  0.00     0.307 C 
ATOM     17  N   UNL d   1     -50.846  -3.562 -12.882  0.00  0.00     0.102 N 
ATOM     18  C   UNL d   1     -49.781  -4.068 -12.052  0.00  0.00     0.299 C 
ATOM     19  C   UNL d   1     -52.093  -3.423 -12.188  0.00  0.00     0.270 C 
ATOM     20  C   UNL d   1     -49.806  -3.514 -10.650  0.00  0.00     0.198 C 
ATOM     21  O   UNL d   1     -51.068  -3.477 -10.090  0.00  0.00    -0.387 OA
ATOM     22  C   UNL d   1     -51.974  -4.182 -10.862  0.00  0.00     0.205 C 
ATOM     23  C   UNL d   1     -52.315  -1.974 -11.815  0.00  0.00     0.206 C 
ATOM     24  O   UNL d   1     -51.099  -1.304 -11.687  0.00  0.00    -0.380 OA
ENDBRANCH  14  15
ENDBRANCH  13  14
ENDBRANCH   6  13
BRANCH   1  25
ATOM     25  O   UNL d   1     -48.611  -0.647 -16.130  0.00  0.00    -0.353 OA
ATOM     26  C   UNL d   1     -48.311  -1.934 -16.662  0.00  0.00     0.210 C 
ENDBRANCH   1  25
BRANCH  12  27
ATOM     27  N   UNL d   1     -49.962   0.211 -20.909  0.00  0.00    -0.339 N 
ATOM     28  HN  UNL d   1     -49.018   0.589 -20.995  1.00  0.00     0.167 HD
BRANCH  27  29
ATOM     29  C   UNL d   1     -50.319  -0.976 -21.611  0.00  0.00     0.074 A 
ATOM     30  C   UNL d   1     -51.084  -0.935 -22.772  0.00  0.00     0.058 A 
ATOM     31  C   UNL d   1     -51.430  -2.102 -23.453  0.00  0.00     0.053 A 
ATOM     32 CL   UNL d   1     -52.399  -2.004 -24.916  0.00  0.00    -0.083 Cl
ATOM     33  C   UNL d   1     -50.989  -3.304 -22.940  0.00  0.00     0.035 A 
ATOM     34 BR   UNL d   1     -51.457  -4.917 -23.868  0.00  0.00    -0.049 Br
ATOM     35  C   UNL d   1     -50.222  -3.337 -21.778  0.00  0.00     0.065 A 
ATOM     36  C   UNL d   1     -49.878  -2.175 -21.098  0.00  0.00     0.144 A 
ATOM     37  F   UNL d   1     -49.135  -2.258 -19.977  0.00  0.00    -0.204 F 
ENDBRANCH  27  29
ENDBRANCH  12  27
TORSDOF 6
ENDMDL
MODEL 3
REMARK VINA RESULT:      -8.1      5.095      8.662
REMARK  6 active torsions:
REMARK  status: ('A' for Active; 'I' for Inactive)
REMARK    1  A    between atoms: O_2  and  C_3 
REMARK    2  A    between atoms: C_8  and  O_9 
REMARK    3  A    between atoms: O_9  and  C_10 
REMARK    4  A    between atoms: C_10  and  C_11 
REMARK    5  A    between atoms: C_26  and  N_27 
REMARK    6  A    between atoms: N_27  and  C_29 
ROOT
ATOM      1  C   UNL d   1     -48.899  -0.592 -18.169  0.00  0.00     0.102 A 
ATOM      2  C   UNL d   1     -50.034   0.035 -17.689  0.00  0.00     0.057 A 
ATOM      3  C   UNL d   1     -50.868   0.730 -18.554  0.00  0.00     0.038 A 
ATOM      4  C   UNL d   1     -50.617   0.830 -19.906  0.00  0.00     0.050 A 
ATOM      5  C   UNL d   1     -49.476   0.197 -20.374  0.00  0.00     0.070 A 
ATOM      6  C   UNL d   1     -48.634  -0.502 -19.521  0.00  0.00     0.104 A 
ATOM      7  N   UNL d   1     -51.447   1.513 -20.717  0.00  0.00    -0.351 N 
ATOM      8  HN  UNL d   1     -51.234   1.569 -21.712  1.00  0.00     0.166 HD
ATOM      9  C   UNL d   1     -52.557   2.126 -20.245  0.00  0.00     0.182 A 
ATOM     10  N   UNL d   1     -52.817   2.039 -18.929  0.00  0.00    -0.338 N 
ATOM     11  HN  UNL d   1     -53.652   2.498 -18.563  1.00  0.00     0.168 HD
ATOM     12  C   UNL d   1     -52.019   1.368 -18.075  0.00  0.00     0.119 A 
ENDROOT
BRANCH   6  13
ATOM     13  O   UNL d   1     -47.480  -1.139 -20.014  0.00  0.00    -0.346 OA
BRANCH  13  14
ATOM     14  C   UNL d   1     -47.369  -1.591 -21.326  0.00  0.00     0.209 C 
BRANCH  14  15
ATOM     15  C   UNL d   1     -47.796  -3.036 -21.462  0.00  0.00     0.174 C 
ATOM     16  C   UNL d   1     -46.984  -3.708 -22.546  0.00  0.00     0.307 C 
ATOM     17  N   UNL d   1     -47.812  -4.424 -23.467  0.00  0.00     0.102 N 
ATOM     18  C   UNL d   1     -48.193  -5.746 -23.035  0.00  0.00     0.299 C 
ATOM     19  C   UNL d   1     -48.898  -3.672 -24.023  0.00  0.00     0.270 C 
ATOM     20  C   UNL d   1     -49.552  -5.791 -22.384  0.00  0.00     0.198 C 
ATOM     21  O   UNL d   1     -50.511  -5.054 -23.052  0.00  0.00    -0.387 OA
ATOM     22  C   UNL d   1     -50.050  -4.646 -24.290  0.00  0.00     0.205 C 
ATOM     23  C   UNL d   1     -49.420  -2.688 -22.999  0.00  0.00     0.206 C 
ATOM     24  O   UNL d   1     -49.168  -3.141 -21.704  0.00  0.00    -0.380 OA
ENDBRANCH  14  15
ENDBRANCH  13  14
ENDBRANCH   6  13
BRANCH   1  25
ATOM     25  O   UNL d   1     -48.063  -1.288 -17.308  0.00  0.00    -0.353 OA
ATOM     26  C   UNL d   1     -48.317  -1.159 -15.913  0.00  0.00     0.210 C 
ENDBRANCH   1  25
BRANCH  12  27
ATOM     27  N   UNL d   1     -52.339   1.302 -16.675  0.00  0.00    -0.339 N 
ATOM     28  HN  UNL d   1     -52.827   0.487 -16.302  1.00  0.00     0.167 HD
BRANCH  27  29
ATOM     29  C   UNL d   1     -51.978   2.372 -15.807  0.00  0.00     0.074 A 
ATOM     30  C   UNL d   1     -52.439   3.668 -16.014  0.00  0.00     0.058 A 
ATOM     31  C   UNL d   1     -52.080   4.711 -15.160  0.00  0.00     0.053 A 
ATOM     32 CL   UNL d   1     -52.686   6.333 -15.459  0.00  0.00    -0.083 Cl
ATOM     33  C   UNL d   1     -51.251   4.418 -14.098  0.00  0.00     0.035 A 
ATOM     34 BR   UNL d   1     -50.751   5.843 -12.913  0.00  0.00    -0.049 Br
ATOM     35  C   UNL d   1     -50.794   3.118 -13.895  0.00  0.00     0.065 A 
ATOM     36  C   UNL d   1     -51.150   2.079 -14.746  0.00  0.00     0.144 A 
ATOM     37  F   UNL d   1     -50.682   0.838 -14.510  0.00  0.00    -0.204 F 
ENDBRANCH  27  29
ENDBRANCH  12  27
TORSDOF 6
ENDMDL
MODEL 4
REMARK VINA RESULT:      -7.7      4.383      8.907
REMARK  6 active torsions:
REMARK  status: ('A' for Active; 'I' for Inactive)
REMARK    1  A    between atoms: O_2  and  C_3 
REMARK    2  A    between atoms: C_8  and  O_9 
REMARK    3  A    between atoms: O_9  and  C_10 
REMARK    4  A    between atoms: C_10  and  C_11 
REMARK    5  A    between atoms: C_26  and  N_27 
REMARK    6  A    between atoms: N_27  and  C_29 
ROOT
ATOM      1  C   UNL d   1     -49.529  -0.556 -18.912  0.00  0.00     0.102 A 
ATOM      2  C   UNL d   1     -49.713  -0.246 -17.577  0.00  0.00     0.057 A 
ATOM      3  C   UNL d   1     -50.643   0.715 -17.203  0.00  0.00     0.038 A 
ATOM      4  C   UNL d   1     -51.415   1.395 -18.122  0.00  0.00     0.050 A 
ATOM      5  C   UNL d   1     -51.220   1.075 -19.457  0.00  0.00     0.070 A 
ATOM      6  C   UNL d   1     -50.294   0.116 -19.843  0.00  0.00     0.104 A 
ATOM      7  N   UNL d   1     -52.308   2.321 -17.726  0.00  0.00    -0.351 N 
ATOM      8  HN  UNL d   1     -52.863   2.808 -18.429  1.00  0.00     0.166 HD
ATOM      9  C   UNL d   1     -52.487   2.623 -16.419  0.00  0.00     0.182 A 
ATOM     10  N   UNL d   1     -51.742   1.970 -15.510  0.00  0.00    -0.338 N 
ATOM     11  HN  UNL d   1     -51.870   2.190 -14.522  1.00  0.00     0.168 HD
ATOM     12  C   UNL d   1     -50.836   1.034 -15.854  0.00  0.00     0.119 A 
ENDROOT
BRANCH   6  13
ATOM     13  O   UNL d   1     -50.110  -0.196 -21.203  0.00  0.00    -0.346 OA
BRANCH  13  14
ATOM     14  C   UNL d   1     -51.169  -0.358 -22.091  0.00  0.00     0.209 C 
BRANCH  14  15
ATOM     15  C   UNL d   1     -50.732  -1.034 -23.373  0.00  0.00     0.174 C 
ATOM     16  C   UNL d   1     -51.938  -1.312 -24.240  0.00  0.00     0.307 C 
ATOM     17  N   UNL d   1     -51.954  -2.661 -24.716  0.00  0.00     0.102 N 
ATOM     18  C   UNL d   1     -51.148  -2.898 -25.888  0.00  0.00     0.299 C 
ATOM     19  C   UNL d   1     -51.798  -3.666 -23.705  0.00  0.00     0.270 C 
ATOM     20  C   UNL d   1     -49.778  -3.440 -25.569  0.00  0.00     0.198 C 
ATOM     21  O   UNL d   1     -49.784  -4.432 -24.608  0.00  0.00    -0.387 OA
ATOM     22  C   UNL d   1     -51.073  -4.857 -24.342  0.00  0.00     0.205 C 
ATOM     23  C   UNL d   1     -50.880  -3.160 -22.615  0.00  0.00     0.206 C 
ATOM     24  O   UNL d   1     -50.003  -2.198 -23.112  0.00  0.00    -0.380 OA
ENDBRANCH  14  15
ENDBRANCH  13  14
ENDBRANCH   6  13
BRANCH   1  25
ATOM     25  O   UNL d   1     -48.601  -1.516 -19.288  0.00  0.00    -0.353 OA
ATOM     26  C   UNL d   1     -47.948  -2.232 -18.244  0.00  0.00     0.210 C 
ENDBRANCH   1  25
BRANCH  12  27
ATOM     27  N   UNL d   1     -50.063   0.361 -14.846  0.00  0.00    -0.339 N 
ATOM     28  HN  UNL d   1     -49.079   0.595 -14.717  1.00  0.00     0.167 HD
BRANCH  27  29
ATOM     29  C   UNL d   1     -50.669  -0.634 -14.026  0.00  0.00     0.074 A 
ATOM     30  C   UNL d   1     -51.649  -0.313 -13.092  0.00  0.00     0.058 A 
ATOM     31  C   UNL d   1     -52.237  -1.293 -12.292  0.00  0.00     0.053 A 
ATOM     32 CL   UNL d   1     -53.471  -0.843 -11.125  0.00  0.00    -0.083 Cl
ATOM     33  C   UNL d   1     -51.819  -2.596 -12.456  0.00  0.00     0.035 A 
ATOM     34 BR   UNL d   1     -52.621  -3.955 -11.364  0.00  0.00    -0.049 Br
ATOM     35  C   UNL d   1     -50.838  -2.911 -13.394  0.00  0.00     0.065 A 
ATOM     36  C   UNL d   1     -50.250  -1.935 -14.190  0.00  0.00     0.144 A 
ATOM     37  F   UNL d   1     -49.305  -2.288 -15.083  0.00  0.00    -0.204 F 
ENDBRANCH  27  29
ENDBRANCH  12  27
TORSDOF 6
ENDMDL
MODEL 5
REMARK VINA RESULT:      -7.4      3.363      5.433
REMARK  6 active torsions:
REMARK  status: ('A' for Active; 'I' for Inactive)
REMARK    1  A    between atoms: O_2  and  C_3 
REMARK    2  A    between atoms: C_8  and  O_9 
REMARK    3  A    between atoms: O_9  and  C_10 
REMARK    4  A    between atoms: C_10  and  C_11 
REMARK    5  A    between atoms: C_26  and  N_27 
REMARK    6  A    between atoms: N_27  and  C_29 
ROOT
ATOM      1  C   UNL d   1     -51.875  -1.294 -21.044  0.00  0.00     0.102 A 
ATOM      2  C   UNL d   1     -51.727  -1.889 -22.284  0.00  0.00     0.057 A 
ATOM      3  C   UNL d   1     -51.627  -1.108 -23.428  0.00  0.00     0.038 A 
ATOM      4  C   UNL d   1     -51.669   0.270 -23.390  0.00  0.00     0.050 A 
ATOM      5  C   UNL d   1     -51.818   0.854 -22.141  0.00  0.00     0.070 A 
ATOM      6  C   UNL d   1     -51.918   0.085 -20.991  0.00  0.00     0.104 A 
ATOM      7  N   UNL d   1     -51.570   0.997 -24.519  0.00  0.00    -0.351 N 
ATOM      8  HN  UNL d   1     -51.604   2.014 -24.459  1.00  0.00     0.166 HD
ATOM      9  C   UNL d   1     -51.424   0.413 -25.731  0.00  0.00     0.182 A 
ATOM     10  N   UNL d   1     -51.382  -0.930 -25.786  0.00  0.00    -0.338 N 
ATOM     11  HN  UNL d   1     -51.273  -1.381 -26.694  1.00  0.00     0.168 HD
ATOM     12  C   UNL d   1     -51.478  -1.703 -24.686  0.00  0.00     0.119 A 
ENDROOT
BRANCH   6  13
ATOM     13  O   UNL d   1     -52.069   0.695 -19.731  0.00  0.00    -0.346 OA
BRANCH  13  14
ATOM     14  C   UNL d   1     -50.994   0.969 -18.891  0.00  0.00     0.209 C 
BRANCH  14  15
ATOM     15  C   UNL d   1     -51.327   0.689 -17.441  0.00  0.00     0.174 C 
ATOM     16  C   UNL d   1     -51.133   1.945 -16.622  0.00  0.00     0.307 C 
ATOM     17  N   UNL d   1     -50.356   1.700 -15.446  0.00  0.00     0.102 N 
ATOM     18  C   UNL d   1     -51.100   1.175 -14.329  0.00  0.00     0.299 C 
ATOM     19  C   UNL d   1     -49.110   1.027 -15.668  0.00  0.00     0.270 C 
ATOM     20  C   UNL d   1     -51.023  -0.327 -14.216  0.00  0.00     0.198 C 
ATOM     21  O   UNL d   1     -49.754  -0.834 -14.413  0.00  0.00    -0.387 OA
ATOM     22  C   UNL d   1     -48.812   0.179 -14.427  0.00  0.00     0.205 C 
ATOM     23  C   UNL d   1     -49.250   0.048 -16.812  0.00  0.00     0.206 C 
ATOM     24  O   UNL d   1     -50.572  -0.376 -16.942  0.00  0.00    -0.380 OA
ENDBRANCH  14  15
ENDBRANCH  13  14
ENDBRANCH   6  13
BRANCH   1  25
ATOM     25  O   UNL d   1     -51.975  -2.070 -19.900  0.00  0.00    -0.353 OA
ATOM     26  C   UNL d   1     -50.826  -2.822 -19.523  0.00  0.00     0.210 C 
ENDBRANCH   1  25
BRANCH  12  27
ATOM     27  N   UNL d   1     -51.426  -3.136 -24.794  0.00  0.00    -0.339 N 
ATOM     28  HN  UNL d   1     -52.287  -3.681 -24.748  1.00  0.00     0.167 HD
BRANCH  27  29
ATOM     29  C   UNL d   1     -50.176  -3.796 -24.965  0.00  0.00     0.074 A 
ATOM     30  C   UNL d   1     -49.316  -3.472 -26.010  0.00  0.00     0.058 A 
ATOM     31  C   UNL d   1     -48.093  -4.123 -26.171  0.00  0.00     0.053 A 
ATOM     32 CL   UNL d   1     -47.038  -3.682 -27.505  0.00  0.00    -0.083 Cl
ATOM     33  C   UNL d   1     -47.758  -5.102 -25.260  0.00  0.00     0.035 A 
ATOM     34 BR   UNL d   1     -46.078  -6.005 -25.469  0.00  0.00    -0.049 Br
ATOM     35  C   UNL d   1     -48.624  -5.421 -24.216  0.00  0.00     0.065 A 
ATOM     36  C   UNL d   1     -49.843  -4.774 -24.055  0.00  0.00     0.144 A 
ATOM     37  F   UNL d   1     -50.646  -5.118 -23.030  0.00  0.00    -0.204 F 
ENDBRANCH  27  29
ENDBRANCH  12  27
TORSDOF 6
ENDMDL
MODEL 6
REMARK VINA RESULT:      -7.1      5.596      9.366
REMARK  6 active torsions:
REMARK  status: ('A' for Active; 'I' for Inactive)
REMARK    1  A    between atoms: O_2  and  C_3 
REMARK    2  A    between atoms: C_8  and  O_9 
REMARK    3  A    between atoms: O_9  and  C_10 
REMARK    4  A    between atoms: C_10  and  C_11 
REMARK    5  A    between atoms: C_26  and  N_27 
REMARK    6  A    between atoms: N_27  and  C_29 
ROOT
ATOM      1  C   UNL d   1     -51.588   1.321 -19.612  0.00  0.00     0.102 A 
ATOM      2  C   UNL d   1     -51.824   1.690 -18.300  0.00  0.00     0.057 A 
ATOM      3  C   UNL d   1     -51.271   0.957 -17.257  0.00  0.00     0.038 A 
ATOM      4  C   UNL d   1     -50.476  -0.150 -17.469  0.00  0.00     0.050 A 
ATOM      5  C   UNL d   1     -50.249  -0.508 -18.789  0.00  0.00     0.070 A 
ATOM      6  C   UNL d   1     -50.794   0.216 -19.840  0.00  0.00     0.104 A 
ATOM      7  N   UNL d   1     -49.957  -0.837 -16.435  0.00  0.00    -0.351 N 
ATOM      8  HN  UNL d   1     -49.373  -1.652 -16.623  1.00  0.00     0.166 HD
ATOM      9  C   UNL d   1     -50.188  -0.475 -15.152  0.00  0.00     0.182 A 
ATOM     10  N   UNL d   1     -50.962   0.602 -14.927  0.00  0.00    -0.338 N 
ATOM     11  HN  UNL d   1     -51.142   0.883 -13.964  1.00  0.00     0.168 HD
ATOM     12  C   UNL d   1     -51.505   1.324 -15.927  0.00  0.00     0.119 A 
ENDROOT
BRANCH   6  13
ATOM     13  O   UNL d   1     -50.552  -0.163 -21.173  0.00  0.00    -0.346 OA
BRANCH  13  14
ATOM     14  C   UNL d   1     -51.374  -1.045 -21.869  0.00  0.00     0.209 C 
BRANCH  14  15
ATOM     15  C   UNL d   1     -50.609  -1.816 -22.924  0.00  0.00     0.174 C 
ATOM     16  C   UNL d   1     -51.567  -2.652 -23.741  0.00  0.00     0.307 C 
ATOM     17  N   UNL d   1     -51.123  -4.006 -23.865  0.00  0.00     0.102 N 
ATOM     18  C   UNL d   1     -50.154  -4.230 -24.909  0.00  0.00     0.299 C 
ATOM     19  C   UNL d   1     -50.790  -4.654 -22.630  0.00  0.00     0.270 C 
ATOM     20  C   UNL d   1     -48.730  -4.220 -24.411  0.00  0.00     0.198 C 
ATOM     21  O   UNL d   1     -48.550  -4.919 -23.234  0.00  0.00    -0.387 OA
ATOM     22  C   UNL d   1     -49.673  -5.662 -22.921  0.00  0.00     0.205 C 
ATOM     23  C   UNL d   1     -50.199  -3.651 -21.666  0.00  0.00     0.206 C 
ATOM     24  O   UNL d   1     -49.600  -2.596 -22.353  0.00  0.00    -0.380 OA
ENDBRANCH  14  15
ENDBRANCH  13  14
ENDBRANCH   6  13
BRANCH   1  25
ATOM     25  O   UNL d   1     -52.138   2.050 -20.656  0.00  0.00    -0.353 OA
ATOM     26  C   UNL d   1     -53.512   1.820 -20.954  0.00  0.00     0.210 C 
ENDBRANCH   1  25
BRANCH  12  27
ATOM     27  N   UNL d   1     -52.325   2.469 -15.637  0.00  0.00    -0.339 N 
ATOM     28  HN  UNL d   1     -53.282   2.511 -15.987  1.00  0.00     0.167 HD
BRANCH  27  29
ATOM     29  C   UNL d   1     -51.803   3.545 -14.863  0.00  0.00     0.074 A 
ATOM     30  C   UNL d   1     -50.811   3.344 -13.910  0.00  0.00     0.058 A 
ATOM     31  C   UNL d   1     -50.304   4.404 -13.155  0.00  0.00     0.053 A 
ATOM     32 CL   UNL d   1     -49.051   4.104 -11.962  0.00  0.00    -0.083 Cl
ATOM     33  C   UNL d   1     -50.819   5.662 -13.384  0.00  0.00     0.035 A 
ATOM     34 BR   UNL d   1     -50.131   7.128 -12.355  0.00  0.00    -0.049 Br
ATOM     35  C   UNL d   1     -51.812   5.856 -14.341  0.00  0.00     0.065 A 
ATOM     36  C   UNL d   1     -52.318   4.802 -15.092  0.00  0.00     0.144 A 
ATOM     37  F   UNL d   1     -53.279   5.038 -16.006  0.00  0.00    -0.204 F 
ENDBRANCH  27  29
ENDBRANCH  12  27
TORSDOF 6
ENDMDL
MODEL 7
REMARK VINA RESULT:      -7.0      4.487      8.830
REMARK  6 active torsions:
REMARK  status: ('A' for Active; 'I' for Inactive)
REMARK    1  A    between atoms: O_2  and  C_3 
REMARK    2  A    between atoms: C_8  and  O_9 
REMARK    3  A    between atoms: O_9  and  C_10 
REMARK    4  A    between atoms: C_10  and  C_11 
REMARK    5  A    between atoms: C_26  and  N_27 
REMARK    6  A    between atoms: N_27  and  C_29 
ROOT
ATOM      1  C   UNL d   1     -50.707  -1.110 -18.885  0.00  0.00     0.102 A 
ATOM      2  C   UNL d   1     -50.460  -0.633 -17.611  0.00  0.00     0.057 A 
ATOM      3  C   UNL d   1     -51.023   0.564 -17.190  0.00  0.00     0.038 A 
ATOM      4  C   UNL d   1     -51.839   1.324 -18.002  0.00  0.00     0.050 A 
ATOM      5  C   UNL d   1     -52.078   0.835 -19.276  0.00  0.00     0.070 A 
ATOM      6  C   UNL d   1     -51.523  -0.360 -19.709  0.00  0.00     0.104 A 
ATOM      7  N   UNL d   1     -52.368   2.482 -17.562  0.00  0.00    -0.351 N 
ATOM      8  HN  UNL d   1     -52.968   3.022 -18.185  1.00  0.00     0.166 HD
ATOM      9  C   UNL d   1     -52.125   2.946 -16.314  0.00  0.00     0.182 A 
ATOM     10  N   UNL d   1     -51.331   2.218 -15.511  0.00  0.00    -0.338 N 
ATOM     11  HN  UNL d   1     -51.142   2.559 -14.568  1.00  0.00     0.168 HD
ATOM     12  C   UNL d   1     -50.777   1.054 -15.902  0.00  0.00     0.119 A 
ENDROOT
BRANCH   6  13
ATOM     13  O   UNL d   1     -51.777  -0.841 -21.007  0.00  0.00    -0.346 OA
BRANCH  13  14
ATOM     14  C   UNL d   1     -51.079  -0.398 -22.127  0.00  0.00     0.209 C 
BRANCH  14  15
ATOM     15  C   UNL d   1     -51.018  -1.455 -23.208  0.00  0.00     0.174 C 
ATOM     16  C   UNL d   1     -51.616  -2.745 -22.694  0.00  0.00     0.307 C 
ATOM     17  N   UNL d   1     -50.767  -3.867 -22.950  0.00  0.00     0.102 N 
ATOM     18  C   UNL d   1     -50.886  -4.425 -24.274  0.00  0.00     0.299 C 
ATOM     19  C   UNL d   1     -49.409  -3.715 -22.516  0.00  0.00     0.270 C 
ATOM     20  C   UNL d   1     -49.840  -3.913 -25.232  0.00  0.00     0.198 C 
ATOM     21  O   UNL d   1     -48.571  -3.859 -24.691  0.00  0.00    -0.387 OA
ATOM     22  C   UNL d   1     -48.522  -4.516 -23.475  0.00  0.00     0.205 C 
ATOM     23  C   UNL d   1     -48.980  -2.273 -22.665  0.00  0.00     0.206 C 
ATOM     24  O   UNL d   1     -49.712  -1.639 -23.668  0.00  0.00    -0.380 OA
ENDBRANCH  14  15
ENDBRANCH  13  14
ENDBRANCH   6  13
BRANCH   1  25
ATOM     25  O   UNL d   1     -50.147  -2.306 -19.309  0.00  0.00    -0.353 OA
ATOM     26  C   UNL d   1     -48.796  -2.558 -18.934  0.00  0.00     0.210 C 
ENDBRANCH   1  25
BRANCH  12  27
ATOM     27  N   UNL d   1     -49.934   0.308 -15.006  0.00  0.00    -0.339 N 
ATOM     28  HN  UNL d   1     -48.929   0.266 -15.170  1.00  0.00     0.167 HD
BRANCH  27  29
ATOM     29  C   UNL d   1     -50.501  -0.371 -13.890  0.00  0.00     0.074 A 
ATOM     30  C   UNL d   1     -51.065  -1.636 -14.015  0.00  0.00     0.058 A 
ATOM     31  C   UNL d   1     -51.619  -2.296 -12.917  0.00  0.00     0.053 A 
ATOM     32 CL   UNL d   1     -52.321  -3.893 -13.121  0.00  0.00    -0.083 Cl
ATOM     33  C   UNL d   1     -51.591  -1.653 -11.698  0.00  0.00     0.035 A 
ATOM     34 BR   UNL d   1     -52.348  -2.548 -10.179  0.00  0.00    -0.049 Br
ATOM     35  C   UNL d   1     -51.024  -0.386 -11.579  0.00  0.00     0.065 A 
ATOM     36  C   UNL d   1     -50.473   0.272 -12.673  0.00  0.00     0.144 A 
ATOM     37  F   UNL d   1     -49.937   1.497 -12.509  0.00  0.00    -0.204 F 
ENDBRANCH  27  29
ENDBRANCH  12  27
TORSDOF 6
ENDMDL
MODEL 8
REMARK VINA RESULT:      -6.9      5.219      8.750
REMARK  6 active torsions:
REMARK  status: ('A' for Active; 'I' for Inactive)
REMARK    1  A    between atoms: O_2  and  C_3 
REMARK    2  A    between atoms: C_8  and  O_9 
REMARK    3  A    between atoms: O_9  and  C_10 
REMARK    4  A    between atoms: C_10  and  C_11 
REMARK    5  A    between atoms: C_26  and  N_27 
REMARK    6  A    between atoms: N_27  and  C_29 
ROOT
ATOM      1  C   UNL d   1     -49.637  -1.151 -18.969  0.00  0.00     0.102 A 
ATOM      2  C   UNL d   1     -50.542  -0.353 -18.295  0.00  0.00     0.057 A 
ATOM      3  C   UNL d   1     -51.291   0.592 -18.984  0.00  0.00     0.038 A 
ATOM      4  C   UNL d   1     -51.176   0.779 -20.346  0.00  0.00     0.050 A 
ATOM      5  C   UNL d   1     -50.264  -0.028 -21.009  0.00  0.00     0.070 A 
ATOM      6  C   UNL d   1     -49.510  -0.976 -20.332  0.00  0.00     0.104 A 
ATOM      7  N   UNL d   1     -51.918   1.704 -20.983  0.00  0.00    -0.351 N 
ATOM      8  HN  UNL d   1     -51.810   1.819 -21.990  1.00  0.00     0.166 HD
ATOM      9  C   UNL d   1     -52.803   2.485 -20.321  0.00  0.00     0.182 A 
ATOM     10  N   UNL d   1     -52.928   2.316 -18.993  0.00  0.00    -0.338 N 
ATOM     11  HN  UNL d   1     -53.593   2.899 -18.485  1.00  0.00     0.168 HD
ATOM     12  C   UNL d   1     -52.209   1.404 -18.309  0.00  0.00     0.119 A 
ENDROOT
BRANCH   6  13
ATOM     13  O   UNL d   1     -48.590  -1.786 -21.023  0.00  0.00    -0.346 OA
BRANCH  13  14
ATOM     14  C   UNL d   1     -48.980  -2.828 -21.860  0.00  0.00     0.209 C 
BRANCH  14  15
ATOM     15  C   UNL d   1     -48.218  -4.102 -21.567  0.00  0.00     0.174 C 
ATOM     16  C   UNL d   1     -46.958  -3.777 -20.797  0.00  0.00     0.307 C 
ATOM     17  N   UNL d   1     -45.807  -4.408 -21.365  0.00  0.00     0.102 N 
ATOM     18  C   UNL d   1     -45.610  -5.779 -20.965  0.00  0.00     0.299 C 
ATOM     19  C   UNL d   1     -45.627  -4.193 -22.771  0.00  0.00     0.270 C 
ATOM     20  C   UNL d   1     -46.160  -6.773 -21.957  0.00  0.00     0.198 C 
ATOM     21  O   UNL d   1     -45.874  -6.461 -23.271  0.00  0.00    -0.387 OA
ATOM     22  C   UNL d   1     -44.945  -5.439 -23.348  0.00  0.00     0.205 C 
ATOM     23  C   UNL d   1     -46.972  -4.106 -23.455  0.00  0.00     0.206 C 
ATOM     24  O   UNL d   1     -47.939  -4.810 -22.739  0.00  0.00    -0.380 OA
ENDBRANCH  14  15
ENDBRANCH  13  14
ENDBRANCH   6  13
BRANCH   1  25
ATOM     25  O   UNL d   1     -48.887  -2.095 -18.284  0.00  0.00    -0.353 OA
ATOM     26  C   UNL d   1     -49.596  -3.008 -17.451  0.00  0.00     0.210 C 
ENDBRANCH   1  25
BRANCH  12  27
ATOM     27  N   UNL d   1     -52.378   1.259 -16.888  0.00  0.00    -0.339 N 
ATOM     28  HN  UNL d   1     -52.829   0.425 -16.512  1.00  0.00     0.167 HD
BRANCH  27  29
ATOM     29  C   UNL d   1     -51.919   2.278 -16.005  0.00  0.00     0.074 A 
ATOM     30  C   UNL d   1     -52.388   3.584 -16.090  0.00  0.00     0.058 A 
ATOM     31  C   UNL d   1     -51.932   4.577 -15.221  0.00  0.00     0.053 A 
ATOM     32 CL   UNL d   1     -52.553   6.214 -15.365  0.00  0.00    -0.083 Cl
ATOM     33  C   UNL d   1     -50.999   4.223 -14.271  0.00  0.00     0.035 A 
ATOM     34 BR   UNL d   1     -50.364   5.577 -13.069  0.00  0.00    -0.049 Br
ATOM     35  C   UNL d   1     -50.533   2.912 -14.191  0.00  0.00     0.065 A 
ATOM     36  C   UNL d   1     -50.986   1.923 -15.056  0.00  0.00     0.144 A 
ATOM     37  F   UNL d   1     -50.506   0.670 -14.940  0.00  0.00    -0.204 F 
ENDBRANCH  27  29
ENDBRANCH  12  27
TORSDOF 6
ENDMDL
MODEL 9
REMARK VINA RESULT:      -6.9      2.058      2.518
REMARK  6 active torsions:
REMARK  status: ('A' for Active; 'I' for Inactive)
REMARK    1  A    between atoms: O_2  and  C_3 
REMARK    2  A    between atoms: C_8  and  O_9 
REMARK    3  A    between atoms: O_9  and  C_10 
REMARK    4  A    between atoms: C_10  and  C_11 
REMARK    5  A    between atoms: C_26  and  N_27 
REMARK    6  A    between atoms: N_27  and  C_29 
ROOT
ATOM      1  C   UNL d   1     -50.160  -1.310 -17.833  0.00  0.00     0.102 A 
ATOM      2  C   UNL d   1     -50.644  -1.553 -19.105  0.00  0.00     0.057 A 
ATOM      3  C   UNL d   1     -51.241  -0.533 -19.834  0.00  0.00     0.038 A 
ATOM      4  C   UNL d   1     -51.380   0.747 -19.340  0.00  0.00     0.050 A 
ATOM      5  C   UNL d   1     -50.891   0.977 -18.064  0.00  0.00     0.070 A 
ATOM      6  C   UNL d   1     -50.291  -0.033 -17.325  0.00  0.00     0.104 A 
ATOM      7  N   UNL d   1     -51.965   1.713 -20.074  0.00  0.00    -0.351 N 
ATOM      8  HN  UNL d   1     -52.053   2.650 -19.681  1.00  0.00     0.166 HD
ATOM      9  C   UNL d   1     -52.437   1.472 -21.319  0.00  0.00     0.182 A 
ATOM     10  N   UNL d   1     -52.310   0.229 -21.815  0.00  0.00    -0.338 N 
ATOM     11  HN  UNL d   1     -52.663   0.038 -22.753  1.00  0.00     0.168 HD
ATOM     12  C   UNL d   1     -51.734  -0.772 -21.122  0.00  0.00     0.119 A 
ENDROOT
BRANCH   6  13
ATOM     13  O   UNL d   1     -49.800   0.220 -16.030  0.00  0.00    -0.346 OA
BRANCH  13  14
ATOM     14  C   UNL d   1     -50.621   0.599 -14.972  0.00  0.00     0.209 C 
BRANCH  14  15
ATOM     15  C   UNL d   1     -51.243  -0.597 -14.285  0.00  0.00     0.174 C 
ATOM     16  C   UNL d   1     -51.994  -0.145 -13.054  0.00  0.00     0.307 C 
ATOM     17  N   UNL d   1     -51.656  -0.927 -11.904  0.00  0.00     0.102 N 
ATOM     18  C   UNL d   1     -52.369  -2.175 -11.791  0.00  0.00     0.299 C 
ATOM     19  C   UNL d   1     -50.252  -1.048 -11.642  0.00  0.00     0.270 C 
ATOM     20  C   UNL d   1     -51.599  -3.352 -12.333  0.00  0.00     0.198 C 
ATOM     21  O   UNL d   1     -50.268  -3.360 -11.965  0.00  0.00    -0.387 OA
ATOM     22  C   UNL d   1     -50.017  -2.414 -10.989  0.00  0.00     0.205 C 
ATOM     23  C   UNL d   1     -49.485  -1.076 -12.944  0.00  0.00     0.206 C 
ATOM     24  O   UNL d   1     -50.283  -1.565 -13.978  0.00  0.00    -0.380 OA
ENDBRANCH  14  15
ENDBRANCH  13  14
ENDBRANCH   6  13
BRANCH   1  25
ATOM     25  O   UNL d   1     -49.563  -2.326 -17.102  0.00  0.00    -0.353 OA
ATOM     26  C   UNL d   1     -49.210  -3.512 -17.808  0.00  0.00     0.210 C 
ENDBRANCH   1  25
BRANCH  12  27
ATOM     27  N   UNL d   1     -51.619  -2.086 -21.696  0.00  0.00    -0.339 N 
ATOM     28  HN  UNL d   1     -52.212  -2.843 -21.356  1.00  0.00     0.167 HD
BRANCH  27  29
ATOM     29  C   UNL d   1     -50.680  -2.332 -22.738  0.00  0.00     0.074 A 
ATOM     30  C   UNL d   1     -49.314  -2.401 -22.488  0.00  0.00     0.058 A 
ATOM     31  C   UNL d   1     -48.400  -2.642 -23.515  0.00  0.00     0.053 A 
ATOM     32 CL   UNL d   1     -46.682  -2.721 -23.153  0.00  0.00    -0.083 Cl
ATOM     33  C   UNL d   1     -48.893  -2.811 -24.791  0.00  0.00     0.035 A 
ATOM     34 BR   UNL d   1     -47.648  -3.145 -26.212  0.00  0.00    -0.049 Br
ATOM     35  C   UNL d   1     -50.263  -2.742 -25.034  0.00  0.00     0.065 A 
ATOM     36  C   UNL d   1     -51.174  -2.501 -24.013  0.00  0.00     0.144 A 
ATOM     37  F   UNL d   1     -52.489  -2.441 -24.297  0.00  0.00    -0.204 F 
ENDBRANCH  27  29
ENDBRANCH  12  27
TORSDOF 6
ENDMDL
