MODEL 1
REMARK VINA RESULT:      -7.2      0.000      0.000
REMARK  6 active torsions:
REMARK  status: ('A' for Active; 'I' for Inactive)
REMARK    1  A    between atoms: O_2  and  C_3 
REMARK    2  A    between atoms: C_4  and  O_5 
REMARK    3  A    between atoms: O_5  and  C_6 
REMARK    4  A    between atoms: C_6  and  C_7 
REMARK    5  A    between atoms: C_21  and  N_22 
REMARK    6  A    between atoms: N_22  and  C_24 
ROOT
ATOM      1  C   UNL d   1      -0.100  49.933 -16.835  0.00  0.00     0.102 A 
ATOM      2  C   UNL d   1       0.567  50.857 -16.041  0.00  0.00     0.104 A 
ATOM      3  C   UNL d   1       1.240  51.911 -16.619  0.00  0.00     0.070 A 
ATOM      4  C   UNL d   1       1.238  52.030 -18.010  0.00  0.00     0.050 A 
ATOM      5  N   UNL d   1       1.879  53.039 -18.627  0.00  0.00    -0.351 N 
ATOM      6  HN  UNL d   1       2.377  53.732 -18.067  1.00  0.00     0.166 HD
ATOM      7  C   UNL d   1       1.877  53.154 -19.968  0.00  0.00     0.182 A 
ATOM      8  N   UNL d   1       1.233  52.262 -20.739  0.00  0.00    -0.338 N 
ATOM      9  HN  UNL d   1       1.249  52.374 -21.752  1.00  0.00     0.168 HD
ATOM     10  C   UNL d   1       0.572  51.231 -20.204  0.00  0.00     0.119 A 
ATOM     11  C   UNL d   1       0.582  51.124 -18.820  0.00  0.00     0.038 A 
ATOM     12  C   UNL d   1      -0.078  50.086 -18.207  0.00  0.00     0.057 A 
ENDROOT
BRANCH  10  13
ATOM     13  N   UNL d   1      -0.127  50.252 -20.926  0.00  0.00    -0.337 N 
ATOM     14  HN  UNL d   1       0.162  49.275 -20.872  1.00  0.00     0.167 HD
BRANCH  13  15
ATOM     15  C   UNL d   1      -1.224  50.616 -21.720  0.00  0.00     0.112 A 
ATOM     16  C   UNL d   1      -1.090  51.134 -23.008  0.00  0.00     0.147 A 
ATOM     17  F   UNL d   1       0.157  51.298 -23.523  0.00  0.00    -0.204 F 
ATOM     18  C   UNL d   1      -2.232  51.474 -23.737  0.00  0.00     0.064 A 
ATOM     19  C   UNL d   1      -3.509  51.301 -23.194  0.00  0.00     0.017 A 
ATOM     20 BR   UNL d   1      -5.072  51.773 -24.213  0.00  0.00    -0.051 Br
ATOM     21  C   UNL d   1      -3.639  50.781 -21.905  0.00  0.00     0.064 A 
ATOM     22  C   UNL d   1      -2.500  50.442 -21.176  0.00  0.00     0.147 A 
ATOM     23  F   UNL d   1      -2.621  49.932 -19.910  0.00  0.00    -0.204 F 
ENDBRANCH  13  15
ENDBRANCH  10  13
BRANCH   1  24
ATOM     24  O   UNL d   1      -0.782  48.869 -16.291  0.00  0.00    -0.353 OA
ATOM     25  C   UNL d   1      -1.860  48.318 -17.023  0.00  0.00     0.210 C 
ENDBRANCH   1  24
BRANCH   2  26
ATOM     26  O   UNL d   1       0.505  50.645 -14.671  0.00  0.00    -0.346 OA
BRANCH  26  27
ATOM     27  C   UNL d   1      -0.440  51.308 -13.885  0.00  0.00     0.209 C 
BRANCH  27  28
ATOM     28  C   UNL d   1      -0.843  50.487 -12.666  0.00  0.00     0.174 C 
ATOM     29  C   UNL d   1      -1.895  51.284 -11.923  0.00  0.00     0.305 C 
ATOM     30  N   UNL d   1      -2.696  51.951 -12.932  0.00  0.00     0.088 N 
ATOM     31  C   UNL d   1      -3.907  52.514 -12.368  0.00  0.00     0.310 C 
ATOM     32  C   UNL d   1      -2.964  50.994 -13.975  0.00  0.00     0.298 C 
ATOM     33  C   UNL d   1      -2.771  49.576 -13.534  0.00  0.00     0.198 C 
ATOM     34  O   UNL d   1      -1.466  49.310 -13.128  0.00  0.00    -0.380 OA
ENDBRANCH  27  28
ENDBRANCH  26  27
ENDBRANCH   2  26
TORSDOF 6
ENDMDL
MODEL 2
REMARK VINA RESULT:      -7.2      2.220      3.486
REMARK  6 active torsions:
REMARK  status: ('A' for Active; 'I' for Inactive)
REMARK    1  A    between atoms: O_2  and  C_3 
REMARK    2  A    between atoms: C_4  and  O_5 
REMARK    3  A    between atoms: O_5  and  C_6 
REMARK    4  A    between atoms: C_6  and  C_7 
REMARK    5  A    between atoms: C_21  and  N_22 
REMARK    6  A    between atoms: N_22  and  C_24 
ROOT
ATOM      1  C   UNL d   1       1.208  51.457 -16.592  0.00  0.00     0.102 A 
ATOM      2  C   UNL d   1       1.214  50.260 -15.887  0.00  0.00     0.104 A 
ATOM      3  C   UNL d   1       0.508  49.174 -16.357  0.00  0.00     0.070 A 
ATOM      4  C   UNL d   1      -0.208  49.301 -17.548  0.00  0.00     0.050 A 
ATOM      5  N   UNL d   1      -0.915  48.274 -18.053  0.00  0.00    -0.351 N 
ATOM      6  HN  UNL d   1      -0.927  47.383 -17.555  1.00  0.00     0.166 HD
ATOM      7  C   UNL d   1      -1.605  48.395 -19.201  0.00  0.00     0.182 A 
ATOM      8  N   UNL d   1      -1.613  49.552 -19.885  0.00  0.00    -0.338 N 
ATOM      9  HN  UNL d   1      -2.146  49.615 -20.753  1.00  0.00     0.168 HD
ATOM     10  C   UNL d   1      -0.937  50.620 -19.453  0.00  0.00     0.119 A 
ATOM     11  C   UNL d   1      -0.229  50.481 -18.267  0.00  0.00     0.038 A 
ATOM     12  C   UNL d   1       0.487  51.541 -17.766  0.00  0.00     0.057 A 
ENDROOT
BRANCH  10  13
ATOM     13  N   UNL d   1      -0.887  51.865 -20.096  0.00  0.00    -0.337 N 
ATOM     14  HN  UNL d   1      -1.017  52.723 -19.560  1.00  0.00     0.167 HD
BRANCH  13  15
ATOM     15  C   UNL d   1      -0.655  51.931 -21.478  0.00  0.00     0.112 A 
ATOM     16  C   UNL d   1      -1.673  51.813 -22.425  0.00  0.00     0.147 A 
ATOM     17  F   UNL d   1      -2.949  51.624 -21.997  0.00  0.00    -0.204 F 
ATOM     18  C   UNL d   1      -1.363  51.889 -23.785  0.00  0.00     0.064 A 
ATOM     19  C   UNL d   1      -0.045  52.083 -24.211  0.00  0.00     0.017 A 
ATOM     20 BR   UNL d   1       0.365  52.186 -26.089  0.00  0.00    -0.051 Br
ATOM     21  C   UNL d   1       0.970  52.201 -23.261  0.00  0.00     0.064 A 
ATOM     22  C   UNL d   1       0.662  52.125 -21.903  0.00  0.00     0.147 A 
ATOM     23  F   UNL d   1       1.655  52.240 -20.966  0.00  0.00    -0.204 F 
ENDBRANCH  13  15
ENDBRANCH  10  13
BRANCH   1  24
ATOM     24  O   UNL d   1       1.902  52.561 -16.151  0.00  0.00    -0.353 OA
ATOM     25  C   UNL d   1       3.225  52.750 -16.614  0.00  0.00     0.210 C 
ENDBRANCH   1  24
BRANCH   2  26
ATOM     26  O   UNL d   1       1.958  50.243 -14.716  0.00  0.00    -0.346 OA
BRANCH  26  27
ATOM     27  C   UNL d   1       1.332  50.205 -13.468  0.00  0.00     0.209 C 
BRANCH  27  28
ATOM     28  C   UNL d   1       1.339  51.568 -12.786  0.00  0.00     0.174 C 
ATOM     29  C   UNL d   1       0.013  52.229 -13.103  0.00  0.00     0.305 C 
ATOM     30  N   UNL d   1      -0.982  51.173 -13.116  0.00  0.00     0.088 N 
ATOM     31  C   UNL d   1      -2.329  51.706 -13.124  0.00  0.00     0.310 C 
ATOM     32  C   UNL d   1      -0.728  50.324 -11.979  0.00  0.00     0.298 C 
ATOM     33  C   UNL d   1       0.109  50.987 -10.929  0.00  0.00     0.198 C 
ATOM     34  O   UNL d   1       1.370  51.350 -11.394  0.00  0.00    -0.380 OA
ENDBRANCH  27  28
ENDBRANCH  26  27
ENDBRANCH   2  26
TORSDOF 6
ENDMDL
MODEL 3
REMARK VINA RESULT:      -7.1      0.499      1.565
REMARK  6 active torsions:
REMARK  status: ('A' for Active; 'I' for Inactive)
REMARK    1  A    between atoms: O_2  and  C_3 
REMARK    2  A    between atoms: C_4  and  O_5 
REMARK    3  A    between atoms: O_5  and  C_6 
REMARK    4  A    between atoms: C_6  and  C_7 
REMARK    5  A    between atoms: C_21  and  N_22 
REMARK    6  A    between atoms: N_22  and  C_24 
ROOT
ATOM      1  C   UNL d   1       0.191  50.058 -17.156  0.00  0.00     0.102 A 
ATOM      2  C   UNL d   1       0.873  51.011 -16.409  0.00  0.00     0.104 A 
ATOM      3  C   UNL d   1       1.441  52.102 -17.030  0.00  0.00     0.070 A 
ATOM      4  C   UNL d   1       1.319  52.229 -18.414  0.00  0.00     0.050 A 
ATOM      5  N   UNL d   1       1.854  53.273 -19.072  0.00  0.00    -0.351 N 
ATOM      6  HN  UNL d   1       2.360  53.988 -18.547  1.00  0.00     0.166 HD
ATOM      7  C   UNL d   1       1.737  53.396 -20.406  0.00  0.00     0.182 A 
ATOM      8  N   UNL d   1       1.079  52.476 -21.131  0.00  0.00    -0.338 N 
ATOM      9  HN  UNL d   1       1.006  52.595 -22.141  1.00  0.00     0.168 HD
ATOM     10  C   UNL d   1       0.518  51.409 -20.555  0.00  0.00     0.119 A 
ATOM     11  C   UNL d   1       0.647  51.295 -19.178  0.00  0.00     0.038 A 
ATOM     12  C   UNL d   1       0.093  50.220 -18.523  0.00  0.00     0.057 A 
ENDROOT
BRANCH  10  13
ATOM     13  N   UNL d   1      -0.187  50.400 -21.227  0.00  0.00    -0.337 N 
ATOM     14  HN  UNL d   1       0.170  49.444 -21.230  1.00  0.00     0.167 HD
BRANCH  13  15
ATOM     15  C   UNL d   1      -1.382  50.703 -21.894  0.00  0.00     0.112 A 
ATOM     16  C   UNL d   1      -2.634  50.614 -21.287  0.00  0.00     0.147 A 
ATOM     17  F   UNL d   1      -2.708  50.216 -19.989  0.00  0.00    -0.204 F 
ATOM     18  C   UNL d   1      -3.782  50.932 -22.019  0.00  0.00     0.064 A 
ATOM     19  C   UNL d   1      -3.691  51.339 -23.353  0.00  0.00     0.017 A 
ATOM     20 BR   UNL d   1      -5.281  51.775 -24.347  0.00  0.00    -0.051 Br
ATOM     21  C   UNL d   1      -2.436  51.428 -23.958  0.00  0.00     0.064 A 
ATOM     22  C   UNL d   1      -1.291  51.110 -23.228  0.00  0.00     0.147 A 
ATOM     23  F   UNL d   1      -0.056  51.194 -23.817  0.00  0.00    -0.204 F 
ENDBRANCH  13  15
ENDBRANCH  10  13
BRANCH   1  24
ATOM     24  O   UNL d   1      -0.388  48.957 -16.568  0.00  0.00    -0.353 OA
ATOM     25  C   UNL d   1      -1.510  48.371 -17.201  0.00  0.00     0.210 C 
ENDBRANCH   1  24
BRANCH   2  26
ATOM     26  O   UNL d   1       0.934  50.787 -15.041  0.00  0.00    -0.346 OA
BRANCH  26  27
ATOM     27  C   UNL d   1       0.039  51.415 -14.171  0.00  0.00     0.209 C 
BRANCH  27  28
ATOM     28  C   UNL d   1      -0.112  50.650 -12.862  0.00  0.00     0.174 C 
ATOM     29  C   UNL d   1      -1.211  51.332 -12.075  0.00  0.00     0.305 C 
ATOM     30  N   UNL d   1      -2.198  51.774 -13.042  0.00  0.00     0.088 N 
ATOM     31  C   UNL d   1      -3.431  52.185 -12.400  0.00  0.00     0.310 C 
ATOM     32  C   UNL d   1      -2.395  50.699 -13.982  0.00  0.00     0.298 C 
ATOM     33  C   UNL d   1      -1.932  49.374 -13.462  0.00  0.00     0.198 C 
ATOM     34  O   UNL d   1      -0.570  49.354 -13.173  0.00  0.00    -0.380 OA
ENDBRANCH  27  28
ENDBRANCH  26  27
ENDBRANCH   2  26
TORSDOF 6
ENDMDL
MODEL 4
REMARK VINA RESULT:      -7.0      2.626      3.452
REMARK  6 active torsions:
REMARK  status: ('A' for Active; 'I' for Inactive)
REMARK    1  A    between atoms: O_2  and  C_3 
REMARK    2  A    between atoms: C_4  and  O_5 
REMARK    3  A    between atoms: O_5  and  C_6 
REMARK    4  A    between atoms: C_6  and  C_7 
REMARK    5  A    between atoms: C_21  and  N_22 
REMARK    6  A    between atoms: N_22  and  C_24 
ROOT
ATOM      1  C   UNL d   1      -0.564  49.310 -19.098  0.00  0.00     0.102 A 
ATOM      2  C   UNL d   1      -0.091  49.890 -17.927  0.00  0.00     0.104 A 
ATOM      3  C   UNL d   1       0.511  51.129 -17.961  0.00  0.00     0.070 A 
ATOM      4  C   UNL d   1       0.633  51.785 -19.187  0.00  0.00     0.050 A 
ATOM      5  N   UNL d   1       1.212  52.996 -19.278  0.00  0.00    -0.351 N 
ATOM      6  HN  UNL d   1       1.568  53.445 -18.433  1.00  0.00     0.166 HD
ATOM      7  C   UNL d   1       1.331  53.629 -20.459  0.00  0.00     0.182 A 
ATOM      8  N   UNL d   1       0.874  53.070 -21.593  0.00  0.00    -0.338 N 
ATOM      9  HN  UNL d   1       0.979  53.573 -22.474  1.00  0.00     0.168 HD
ATOM     10  C   UNL d   1       0.287  51.870 -21.589  0.00  0.00     0.119 A 
ATOM     11  C   UNL d   1       0.171  51.229 -20.363  0.00  0.00     0.038 A 
ATOM     12  C   UNL d   1      -0.423  49.991 -20.290  0.00  0.00     0.057 A 
ENDROOT
BRANCH  10  13
ATOM     13  N   UNL d   1      -0.219  51.209 -22.718  0.00  0.00    -0.337 N 
ATOM     14  HN  UNL d   1      -0.598  50.266 -22.630  1.00  0.00     0.167 HD
BRANCH  13  15
ATOM     15  C   UNL d   1      -0.204  51.845 -23.968  0.00  0.00     0.112 A 
ATOM     16  C   UNL d   1       0.943  51.943 -24.756  0.00  0.00     0.147 A 
ATOM     17  F   UNL d   1       2.102  51.401 -24.299  0.00  0.00    -0.204 F 
ATOM     18  C   UNL d   1       0.878  52.593 -25.992  0.00  0.00     0.064 A 
ATOM     19  C   UNL d   1      -0.322  53.146 -26.449  0.00  0.00     0.017 A 
ATOM     20 BR   UNL d   1      -0.394  54.037 -28.154  0.00  0.00    -0.051 Br
ATOM     21  C   UNL d   1      -1.467  53.045 -25.658  0.00  0.00     0.064 A 
ATOM     22  C   UNL d   1      -1.404  52.397 -24.425  0.00  0.00     0.147 A 
ATOM     23  F   UNL d   1      -2.525  52.296 -23.644  0.00  0.00    -0.204 F 
ENDBRANCH  13  15
ENDBRANCH  10  13
BRANCH   1  24
ATOM     24  O   UNL d   1      -1.170  48.074 -19.100  0.00  0.00    -0.353 OA
ATOM     25  C   UNL d   1      -1.938  47.706 -20.229  0.00  0.00     0.210 C 
ENDBRANCH   1  24
BRANCH   2  26
ATOM     26  O   UNL d   1      -0.265  49.152 -16.765  0.00  0.00    -0.346 OA
BRANCH  26  27
ATOM     27  C   UNL d   1       0.573  49.342 -15.663  0.00  0.00     0.209 C 
BRANCH  27  28
ATOM     28  C   UNL d   1      -0.209  49.737 -14.416  0.00  0.00     0.174 C 
ATOM     29  C   UNL d   1       0.745  49.633 -13.244  0.00  0.00     0.305 C 
ATOM     30  N   UNL d   1       2.044  50.058 -13.731  0.00  0.00     0.088 N 
ATOM     31  C   UNL d   1       2.977  50.277 -12.644  0.00  0.00     0.310 C 
ATOM     32  C   UNL d   1       1.842  51.237 -14.534  0.00  0.00     0.298 C 
ATOM     33  C   UNL d   1       0.533  51.911 -14.266  0.00  0.00     0.198 C 
ATOM     34  O   UNL d   1      -0.561  51.096 -14.543  0.00  0.00    -0.380 OA
ENDBRANCH  27  28
ENDBRANCH  26  27
ENDBRANCH   2  26
TORSDOF 6
ENDMDL
MODEL 5
REMARK VINA RESULT:      -7.0      4.913      8.895
REMARK  6 active torsions:
REMARK  status: ('A' for Active; 'I' for Inactive)
REMARK    1  A    between atoms: O_2  and  C_3 
REMARK    2  A    between atoms: C_4  and  O_5 
REMARK    3  A    between atoms: O_5  and  C_6 
REMARK    4  A    between atoms: C_6  and  C_7 
REMARK    5  A    between atoms: C_21  and  N_22 
REMARK    6  A    between atoms: N_22  and  C_24 
ROOT
ATOM      1  C   UNL d   1       0.531  52.596 -20.879  0.00  0.00     0.102 A 
ATOM      2  C   UNL d   1       0.076  51.538 -21.656  0.00  0.00     0.104 A 
ATOM      3  C   UNL d   1      -0.265  50.340 -21.065  0.00  0.00     0.070 A 
ATOM      4  C   UNL d   1      -0.146  50.215 -19.679  0.00  0.00     0.050 A 
ATOM      5  N   UNL d   1      -0.464  49.070 -19.050  0.00  0.00    -0.351 N 
ATOM      6  HN  UNL d   1      -0.801  48.276 -19.597  1.00  0.00     0.166 HD
ATOM      7  C   UNL d   1      -0.349  48.948 -17.715  0.00  0.00     0.182 A 
ATOM      8  N   UNL d   1       0.090  49.970 -16.962  0.00  0.00    -0.338 N 
ATOM      9  HN  UNL d   1       0.168  49.849 -15.952  1.00  0.00     0.168 HD
ATOM     10  C   UNL d   1       0.427  51.142 -17.509  0.00  0.00     0.119 A 
ATOM     11  C   UNL d   1       0.304  51.253 -18.887  0.00  0.00     0.038 A 
ATOM     12  C   UNL d   1       0.635  52.432 -19.513  0.00  0.00     0.057 A 
ENDROOT
BRANCH  10  13
ATOM     13  N   UNL d   1       0.895  52.262 -16.807  0.00  0.00    -0.337 N 
ATOM     14  HN  UNL d   1       0.412  53.157 -16.894  1.00  0.00     0.167 HD
BRANCH  13  15
ATOM     15  C   UNL d   1       2.025  52.153 -15.983  0.00  0.00     0.112 A 
ATOM     16  C   UNL d   1       1.988  51.570 -14.716  0.00  0.00     0.147 A 
ATOM     17  F   UNL d   1       0.806  51.083 -14.252  0.00  0.00    -0.204 F 
ATOM     18  C   UNL d   1       3.156  51.499 -13.954  0.00  0.00     0.064 A 
ATOM     19  C   UNL d   1       4.364  52.004 -14.445  0.00  0.00     0.017 A 
ATOM     20 BR   UNL d   1       5.966  51.898 -13.382  0.00  0.00    -0.051 Br
ATOM     21  C   UNL d   1       4.398  52.586 -15.713  0.00  0.00     0.064 A 
ATOM     22  C   UNL d   1       3.232  52.658 -16.474  0.00  0.00     0.147 A 
ATOM     23  F   UNL d   1       3.258  53.229 -17.719  0.00  0.00    -0.204 F 
ENDBRANCH  13  15
ENDBRANCH  10  13
BRANCH   1  24
ATOM     24  O   UNL d   1       0.880  53.805 -21.437  0.00  0.00    -0.353 OA
ATOM     25  C   UNL d   1       2.250  54.156 -21.474  0.00  0.00     0.210 C 
ENDBRANCH   1  24
BRANCH   2  26
ATOM     26  O   UNL d   1      -0.004  51.770 -23.021  0.00  0.00    -0.346 OA
BRANCH  26  27
ATOM     27  C   UNL d   1      -1.029  51.207 -23.785  0.00  0.00     0.209 C 
BRANCH  27  28
ATOM     28  C   UNL d   1      -2.132  52.213 -24.088  0.00  0.00     0.174 C 
ATOM     29  C   UNL d   1      -2.601  51.945 -25.503  0.00  0.00     0.305 C 
ATOM     30  N   UNL d   1      -2.542  50.508 -25.691  0.00  0.00     0.088 N 
ATOM     31  C   UNL d   1      -3.232  50.097 -26.898  0.00  0.00     0.310 C 
ATOM     32  C   UNL d   1      -3.086  49.893 -24.507  0.00  0.00     0.298 C 
ATOM     33  C   UNL d   1      -3.928  50.827 -23.695  0.00  0.00     0.198 C 
ATOM     34  O   UNL d   1      -3.217  51.931 -23.233  0.00  0.00    -0.380 OA
ENDBRANCH  27  28
ENDBRANCH  26  27
ENDBRANCH   2  26
TORSDOF 6
ENDMDL
MODEL 6
REMARK VINA RESULT:      -6.9      2.218      3.113
REMARK  6 active torsions:
REMARK  status: ('A' for Active; 'I' for Inactive)
REMARK    1  A    between atoms: O_2  and  C_3 
REMARK    2  A    between atoms: C_4  and  O_5 
REMARK    3  A    between atoms: O_5  and  C_6 
REMARK    4  A    between atoms: C_6  and  C_7 
REMARK    5  A    between atoms: C_21  and  N_22 
REMARK    6  A    between atoms: N_22  and  C_24 
ROOT
ATOM      1  C   UNL d   1      -0.357  49.383 -19.016  0.00  0.00     0.102 A 
ATOM      2  C   UNL d   1       0.119  49.988 -17.859  0.00  0.00     0.104 A 
ATOM      3  C   UNL d   1       0.738  51.218 -17.924  0.00  0.00     0.070 A 
ATOM      4  C   UNL d   1       0.875  51.838 -19.167  0.00  0.00     0.050 A 
ATOM      5  N   UNL d   1       1.471  53.037 -19.289  0.00  0.00    -0.351 N 
ATOM      6  HN  UNL d   1       1.830  53.504 -18.454  1.00  0.00     0.166 HD
ATOM      7  C   UNL d   1       1.605  53.636 -20.486  0.00  0.00     0.182 A 
ATOM      8  N   UNL d   1       1.146  53.053 -21.606  0.00  0.00    -0.338 N 
ATOM      9  HN  UNL d   1       1.261  53.529 -22.500  1.00  0.00     0.168 HD
ATOM     10  C   UNL d   1       0.541  51.862 -21.572  0.00  0.00     0.119 A 
ATOM     11  C   UNL d   1       0.411  51.256 -20.330  0.00  0.00     0.038 A 
ATOM     12  C   UNL d   1      -0.201  50.029 -20.225  0.00  0.00     0.057 A 
ENDROOT
BRANCH  10  13
ATOM     13  N   UNL d   1       0.032  51.177 -22.685  0.00  0.00    -0.337 N 
ATOM     14  HN  UNL d   1      -0.221  50.192 -22.606  1.00  0.00     0.167 HD
BRANCH  13  15
ATOM     15  C   UNL d   1      -0.133  51.847 -23.906  0.00  0.00     0.112 A 
ATOM     16  C   UNL d   1      -1.348  52.398 -24.312  0.00  0.00     0.147 A 
ATOM     17  F   UNL d   1      -2.426  52.286 -23.493  0.00  0.00    -0.204 F 
ATOM     18  C   UNL d   1      -1.433  53.050 -25.545  0.00  0.00     0.064 A 
ATOM     19  C   UNL d   1      -0.315  53.157 -26.378  0.00  0.00     0.017 A 
ATOM     20 BR   UNL d   1      -0.449  54.060 -28.073  0.00  0.00    -0.051 Br
ATOM     21  C   UNL d   1       0.899  52.605 -25.969  0.00  0.00     0.064 A 
ATOM     22  C   UNL d   1       0.985  51.954 -24.738  0.00  0.00     0.147 A 
ATOM     23  F   UNL d   1       2.174  51.409 -24.331  0.00  0.00    -0.204 F 
ENDBRANCH  13  15
ENDBRANCH  10  13
BRANCH   1  24
ATOM     24  O   UNL d   1      -0.980  48.156 -18.987  0.00  0.00    -0.353 OA
ATOM     25  C   UNL d   1      -1.814  47.802 -20.073  0.00  0.00     0.210 C 
ENDBRANCH   1  24
BRANCH   2  26
ATOM     26  O   UNL d   1      -0.071  49.285 -16.678  0.00  0.00    -0.346 OA
BRANCH  26  27
ATOM     27  C   UNL d   1      -1.008  49.710 -15.733  0.00  0.00     0.209 C 
BRANCH  27  28
ATOM     28  C   UNL d   1      -0.803  49.032 -14.384  0.00  0.00     0.174 C 
ATOM     29  C   UNL d   1       0.038  49.968 -13.541  0.00  0.00     0.305 C 
ATOM     30  N   UNL d   1      -0.380  51.316 -13.879  0.00  0.00     0.088 N 
ATOM     31  C   UNL d   1       0.141  52.289 -12.941  0.00  0.00     0.310 C 
ATOM     32  C   UNL d   1      -1.821  51.320 -13.938  0.00  0.00     0.298 C 
ATOM     33  C   UNL d   1      -2.440  50.160 -13.223  0.00  0.00     0.198 C 
ATOM     34  O   UNL d   1      -2.062  48.932 -13.759  0.00  0.00    -0.380 OA
ENDBRANCH  27  28
ENDBRANCH  26  27
ENDBRANCH   2  26
TORSDOF 6
ENDMDL
MODEL 7
REMARK VINA RESULT:      -6.7      2.381      3.639
REMARK  6 active torsions:
REMARK  status: ('A' for Active; 'I' for Inactive)
REMARK    1  A    between atoms: O_2  and  C_3 
REMARK    2  A    between atoms: C_4  and  O_5 
REMARK    3  A    between atoms: O_5  and  C_6 
REMARK    4  A    between atoms: C_6  and  C_7 
REMARK    5  A    between atoms: C_21  and  N_22 
REMARK    6  A    between atoms: N_22  and  C_24 
ROOT
ATOM      1  C   UNL d   1       0.150  50.228 -15.243  0.00  0.00     0.102 A 
ATOM      2  C   UNL d   1      -1.019  50.245 -14.491  0.00  0.00     0.104 A 
ATOM      3  C   UNL d   1      -2.245  50.295 -15.117  0.00  0.00     0.070 A 
ATOM      4  C   UNL d   1      -2.289  50.328 -16.512  0.00  0.00     0.050 A 
ATOM      5  N   UNL d   1      -3.458  50.377 -17.174  0.00  0.00    -0.351 N 
ATOM      6  HN  UNL d   1      -4.332  50.391 -16.646  1.00  0.00     0.166 HD
ATOM      7  C   UNL d   1      -3.502  50.409 -18.518  0.00  0.00     0.182 A 
ATOM      8  N   UNL d   1      -2.374  50.392 -19.248  0.00  0.00    -0.338 N 
ATOM      9  HN  UNL d   1      -2.437  50.417 -20.266  1.00  0.00     0.168 HD
ATOM     10  C   UNL d   1      -1.171  50.343 -18.667  0.00  0.00     0.119 A 
ATOM     11  C   UNL d   1      -1.142  50.311 -17.280  0.00  0.00     0.038 A 
ATOM     12  C   UNL d   1       0.063  50.261 -16.620  0.00  0.00     0.057 A 
ENDROOT
BRANCH  10  13
ATOM     13  N   UNL d   1       0.057  50.323 -19.343  0.00  0.00    -0.337 N 
ATOM     14  HN  UNL d   1       0.730  49.579 -19.158  1.00  0.00     0.167 HD
BRANCH  13  15
ATOM     15  C   UNL d   1       0.362  51.325 -20.276  0.00  0.00     0.112 A 
ATOM     16  C   UNL d   1       1.084  52.472 -19.949  0.00  0.00     0.147 A 
ATOM     17  F   UNL d   1       1.516  52.633 -18.670  0.00  0.00    -0.204 F 
ATOM     18  C   UNL d   1       1.347  53.428 -20.934  0.00  0.00     0.064 A 
ATOM     19  C   UNL d   1       0.896  53.249 -22.245  0.00  0.00     0.017 A 
ATOM     20 BR   UNL d   1       1.268  54.574 -23.590  0.00  0.00    -0.051 Br
ATOM     21  C   UNL d   1       0.173  52.100 -22.569  0.00  0.00     0.064 A 
ATOM     22  C   UNL d   1      -0.090  51.146 -21.586  0.00  0.00     0.147 A 
ATOM     23  F   UNL d   1      -0.799  50.016 -21.899  0.00  0.00    -0.204 F 
ENDBRANCH  13  15
ENDBRANCH  10  13
BRANCH   1  24
ATOM     24  O   UNL d   1       1.391  50.178 -14.650  0.00  0.00    -0.353 OA
ATOM     25  C   UNL d   1       2.088  51.392 -14.452  0.00  0.00     0.210 C 
ENDBRANCH   1  24
BRANCH   2  26
ATOM     26  O   UNL d   1      -0.861  50.209 -13.113  0.00  0.00    -0.346 OA
BRANCH  26  27
ATOM     27  C   UNL d   1      -1.306  51.264 -12.313  0.00  0.00     0.209 C 
BRANCH  27  28
ATOM     28  C   UNL d   1      -1.850  50.774 -10.977  0.00  0.00     0.174 C 
ATOM     29  C   UNL d   1      -2.481  51.968 -10.291  0.00  0.00     0.305 C 
ATOM     30  N   UNL d   1      -3.093  52.768 -11.335  0.00  0.00     0.088 N 
ATOM     31  C   UNL d   1      -3.971  53.782 -10.787  0.00  0.00     0.310 C 
ATOM     32  C   UNL d   1      -3.777  51.867 -12.228  0.00  0.00     0.298 C 
ATOM     33  C   UNL d   1      -4.049  50.529 -11.614  0.00  0.00     0.198 C 
ATOM     34  O   UNL d   1      -2.886  49.857 -11.246  0.00  0.00    -0.380 OA
ENDBRANCH  27  28
ENDBRANCH  26  27
ENDBRANCH   2  26
TORSDOF 6
ENDMDL
MODEL 8
REMARK VINA RESULT:      -6.7      4.041      7.557
REMARK  6 active torsions:
REMARK  status: ('A' for Active; 'I' for Inactive)
REMARK    1  A    between atoms: O_2  and  C_3 
REMARK    2  A    between atoms: C_4  and  O_5 
REMARK    3  A    between atoms: O_5  and  C_6 
REMARK    4  A    between atoms: C_6  and  C_7 
REMARK    5  A    between atoms: C_21  and  N_22 
REMARK    6  A    between atoms: N_22  and  C_24 
ROOT
ATOM      1  C   UNL d   1      -1.270  49.193 -21.198  0.00  0.00     0.102 A 
ATOM      2  C   UNL d   1      -1.572  50.019 -22.274  0.00  0.00     0.104 A 
ATOM      3  C   UNL d   1      -1.167  51.336 -22.272  0.00  0.00     0.070 A 
ATOM      4  C   UNL d   1      -0.453  51.820 -21.174  0.00  0.00     0.050 A 
ATOM      5  N   UNL d   1      -0.033  53.096 -21.120  0.00  0.00    -0.351 N 
ATOM      6  HN  UNL d   1      -0.241  53.725 -21.897  1.00  0.00     0.166 HD
ATOM      7  C   UNL d   1       0.655  53.564 -20.062  0.00  0.00     0.182 A 
ATOM      8  N   UNL d   1       0.947  52.768 -19.020  0.00  0.00    -0.338 N 
ATOM      9  HN  UNL d   1       1.470  53.149 -18.232  1.00  0.00     0.168 HD
ATOM     10  C   UNL d   1       0.568  51.487 -18.996  0.00  0.00     0.119 A 
ATOM     11  C   UNL d   1      -0.142  51.018 -20.093  0.00  0.00     0.038 A 
ATOM     12  C   UNL d   1      -0.562  49.710 -20.132  0.00  0.00     0.057 A 
ENDROOT
BRANCH  10  13
ATOM     13  N   UNL d   1       0.826  50.583 -17.956  0.00  0.00    -0.337 N 
ATOM     14  HN  UNL d   1       1.299  49.700 -18.152  1.00  0.00     0.167 HD
BRANCH  13  15
ATOM     15  C   UNL d   1       0.434  50.891 -16.645  0.00  0.00     0.112 A 
ATOM     16  C   UNL d   1       1.228  51.634 -15.770  0.00  0.00     0.147 A 
ATOM     17  F   UNL d   1       2.436  52.083 -16.201  0.00  0.00    -0.204 F 
ATOM     18  C   UNL d   1       0.769  51.899 -14.478  0.00  0.00     0.064 A 
ATOM     19  C   UNL d   1      -0.476  51.430 -14.048  0.00  0.00     0.017 A 
ATOM     20 BR   UNL d   1      -1.093  51.805 -12.264  0.00  0.00    -0.051 Br
ATOM     21  C   UNL d   1      -1.267  50.687 -14.925  0.00  0.00     0.064 A 
ATOM     22  C   UNL d   1      -0.810  50.421 -16.216  0.00  0.00     0.147 A 
ATOM     23  F   UNL d   1      -1.582  49.692 -17.081  0.00  0.00    -0.204 F 
ENDBRANCH  13  15
ENDBRANCH  10  13
BRANCH   1  24
ATOM     24  O   UNL d   1      -1.659  47.873 -21.167  0.00  0.00    -0.353 OA
ATOM     25  C   UNL d   1      -2.307  47.392 -20.005  0.00  0.00     0.210 C 
ENDBRANCH   1  24
BRANCH   2  26
ATOM     26  O   UNL d   1      -2.284  49.436 -23.311  0.00  0.00    -0.346 OA
BRANCH  26  27
ATOM     27  C   UNL d   1      -3.665  49.616 -23.423  0.00  0.00     0.209 C 
BRANCH  27  28
ATOM     28  C   UNL d   1      -4.412  48.288 -23.436  0.00  0.00     0.174 C 
ATOM     29  C   UNL d   1      -5.256  48.242 -22.178  0.00  0.00     0.305 C 
ATOM     30  N   UNL d   1      -5.720  49.597 -21.942  0.00  0.00     0.088 N 
ATOM     31  C   UNL d   1      -6.764  49.638 -20.939  0.00  0.00     0.310 C 
ATOM     32  C   UNL d   1      -6.147  50.135 -23.209  0.00  0.00     0.298 C 
ATOM     33  C   UNL d   1      -6.424  49.077 -24.232  0.00  0.00     0.198 C 
ATOM     34  O   UNL d   1      -5.302  48.308 -24.529  0.00  0.00    -0.380 OA
ENDBRANCH  27  28
ENDBRANCH  26  27
ENDBRANCH   2  26
TORSDOF 6
ENDMDL
MODEL 9
REMARK VINA RESULT:      -6.7      4.971      8.769
REMARK  6 active torsions:
REMARK  status: ('A' for Active; 'I' for Inactive)
REMARK    1  A    between atoms: O_2  and  C_3 
REMARK    2  A    between atoms: C_4  and  O_5 
REMARK    3  A    between atoms: O_5  and  C_6 
REMARK    4  A    between atoms: C_6  and  C_7 
REMARK    5  A    between atoms: C_21  and  N_22 
REMARK    6  A    between atoms: N_22  and  C_24 
ROOT
ATOM      1  C   UNL d   1       0.692  52.235 -19.484  0.00  0.00     0.102 A 
ATOM      2  C   UNL d   1       0.075  51.154 -20.100  0.00  0.00     0.104 A 
ATOM      3  C   UNL d   1      -0.212  50.015 -19.379  0.00  0.00     0.070 A 
ATOM      4  C   UNL d   1       0.128  49.971 -18.026  0.00  0.00     0.050 A 
ATOM      5  N   UNL d   1      -0.128  48.886 -17.274  0.00  0.00    -0.351 N 
ATOM      6  HN  UNL d   1      -0.581  48.077 -17.702  1.00  0.00     0.166 HD
ATOM      7  C   UNL d   1       0.200  48.843 -15.970  0.00  0.00     0.182 A 
ATOM      8  N   UNL d   1       0.797  49.887 -15.372  0.00  0.00    -0.338 N 
ATOM      9  HN  UNL d   1       1.035  49.826 -14.381  1.00  0.00     0.168 HD
ATOM     10  C   UNL d   1       1.086  51.003 -16.047  0.00  0.00     0.119 A 
ATOM     11  C   UNL d   1       0.742  51.034 -17.392  0.00  0.00     0.038 A 
ATOM     12  C   UNL d   1       1.012  52.152 -18.144  0.00  0.00     0.057 A 
ENDROOT
BRANCH  10  13
ATOM     13  N   UNL d   1       1.706  52.140 -15.510  0.00  0.00    -0.337 N 
ATOM     14  HN  UNL d   1       1.322  53.067 -15.695  1.00  0.00     0.167 HD
BRANCH  13  15
ATOM     15  C   UNL d   1       2.855  52.004 -14.717  0.00  0.00     0.112 A 
ATOM     16  C   UNL d   1       2.810  51.660 -13.366  0.00  0.00     0.147 A 
ATOM     17  F   UNL d   1       1.600  51.445 -12.784  0.00  0.00    -0.204 F 
ATOM     18  C   UNL d   1       3.999  51.545 -12.642  0.00  0.00     0.064 A 
ATOM     19  C   UNL d   1       5.236  51.771 -13.254  0.00  0.00     0.017 A 
ATOM     20 BR   UNL d   1       6.865  51.607 -12.242  0.00  0.00    -0.051 Br
ATOM     21  C   UNL d   1       5.278  52.114 -14.605  0.00  0.00     0.064 A 
ATOM     22  C   UNL d   1       4.091  52.230 -15.330  0.00  0.00     0.147 A 
ATOM     23  F   UNL d   1       4.127  52.567 -16.657  0.00  0.00    -0.204 F 
ENDBRANCH  13  15
ENDBRANCH  10  13
BRANCH   1  24
ATOM     24  O   UNL d   1       0.992  53.387 -20.174  0.00  0.00    -0.353 OA
ATOM     25  C   UNL d   1       2.314  53.560 -20.647  0.00  0.00     0.210 C 
ENDBRANCH   1  24
BRANCH   2  26
ATOM     26  O   UNL d   1      -0.220  51.303 -21.447  0.00  0.00    -0.346 OA
BRANCH  26  27
ATOM     27  C   UNL d   1      -1.068  50.405 -22.100  0.00  0.00     0.209 C 
BRANCH  27  28
ATOM     28  C   UNL d   1      -1.713  51.025 -23.333  0.00  0.00     0.174 C 
ATOM     29  C   UNL d   1      -2.466  49.919 -24.043  0.00  0.00     0.305 C 
ATOM     30  N   UNL d   1      -3.013  49.062 -23.008  0.00  0.00     0.088 N 
ATOM     31  C   UNL d   1      -3.989  48.133 -23.542  0.00  0.00     0.310 C 
ATOM     32  C   UNL d   1      -3.562  49.915 -21.984  0.00  0.00     0.298 C 
ATOM     33  C   UNL d   1      -3.825  51.309 -22.462  0.00  0.00     0.198 C 
ATOM     34  O   UNL d   1      -2.672  51.959 -22.891  0.00  0.00    -0.380 OA
ENDBRANCH  27  28
ENDBRANCH  26  27
ENDBRANCH   2  26
TORSDOF 6
ENDMDL
