MODEL 1
REMARK VINA RESULT:      -7.9      0.000      0.000
REMARK  7 active torsions:
REMARK  status: ('A' for Active; 'I' for Inactive)
REMARK    1  A    between atoms: C_2  and  C_3 
REMARK       I    between atoms: C_3  and  N_5 
REMARK    2  A    between atoms: N_5  and  C_7 
REMARK    3  A    between atoms: C_9  and  N_10 
REMARK    4  A    between atoms: N_10  and  C_12 
REMARK    5  A    between atoms: C_18  and  C_19 
REMARK    6  A    between atoms: C_31  and  O_32 
REMARK    7  A    between atoms: C_35  and  N_36 
ROOT
ATOM      1  C   UNL d   1      -2.328  51.055 -19.172  0.00  0.00     0.064 A 
ATOM      2  C   UNL d   1      -3.251  51.151 -20.183  0.00  0.00     0.065 A 
ATOM      3  C   UNL d   1      -4.371  50.354 -20.304  0.00  0.00     0.084 A 
ATOM      4  C   UNL d   1      -4.581  49.388 -19.340  0.00  0.00     0.097 A 
ATOM      5  C   UNL d   1      -3.679  49.251 -18.301  0.00  0.00     0.070 A 
ATOM      6  C   UNL d   1      -2.567  50.069 -18.213  0.00  0.00     0.060 A 
ENDROOT
BRANCH   3   7
ATOM      7  N   UNL d   1      -5.216  50.576 -21.407  0.00  0.00    -0.189 N 
ATOM      8  HN  UNL d   1      -6.101  51.052 -21.236  1.00  0.00     0.184 HD
BRANCH   7   9
ATOM      9  C   UNL d   1      -4.927  50.186 -22.743  0.00  0.00     0.683 A 
ATOM     10  N   UNL d   1      -5.445  49.068 -23.295  0.00  0.00    -0.200 N 
ATOM     11  C   UNL d   1      -5.164  48.702 -24.580  0.00  0.00     0.132 A 
ATOM     12  HN  UNL d   1      -6.065  48.480 -22.736  1.00  0.00     0.183 HD
ATOM     13  C   UNL d   1      -4.314  49.526 -25.320  0.00  0.00     0.078 A 
ATOM     14 CL   UNL d   1      -3.897  49.134 -26.982  0.00  0.00    -0.080 Cl
ATOM     15  C   UNL d   1      -3.783  50.667 -24.760  0.00  0.00     0.086 A 
ATOM     16  N   UNL d   1      -4.102  50.967 -23.492  0.00  0.00    -0.189 N 
ATOM     17  HN  UNL d   1      -3.711  51.811 -23.073  1.00  0.00     0.184 HD
BRANCH  15  18
ATOM     18  C   UNL d   1      -2.900  51.520 -25.548  0.00  0.00     0.038 A 
ATOM     19  C   UNL d   1      -1.589  51.832 -25.285  0.00  0.00     0.069 A 
ATOM     20  C   UNL d   1      -0.765  51.451 -24.246  0.00  0.00     0.032 A 
ATOM     21  N   UNL d   1      -1.202  52.638 -26.287  0.00  0.00    -0.267 N 
ATOM     22  C   UNL d   1       0.533  51.942 -24.258  0.00  0.00     0.004 A 
ATOM     23  C   UNL d   1       0.958  52.772 -25.275  0.00  0.00     0.019 A 
ATOM     24  C   UNL d   1       0.072  53.115 -26.292  0.00  0.00     0.116 A 
ATOM     25  N   UNL d   1      -2.166  52.849 -27.144  0.00  0.00    -0.304 N 
ATOM     26  C   UNL d   1      -3.234  52.170 -26.719  0.00  0.00     0.123 A 
ATOM     27  HN  UNL d   1      -2.112  53.425 -27.985  1.00  0.00     0.186 HD
ENDBRANCH  15  18
ENDBRANCH   7   9
ENDBRANCH   3   7
BRANCH   4  28
ATOM     28  O   UNL d   1      -5.709  48.590 -19.467  0.00  0.00    -0.354 OA
ATOM     29  C   UNL d   1      -5.550  47.254 -19.964  0.00  0.00     0.210 C 
ENDBRANCH   4  28
BRANCH   1  30
ATOM     30  N   UNL d   1      -1.177  51.892 -19.075  0.00  0.00    -0.322 N 
ATOM     31  C   UNL d   1      -0.063  51.605 -19.944  0.00  0.00     0.244 C 
ATOM     32  O   UNL d   1      -0.059  50.619 -20.719  0.00  0.00    -0.268 OA
ATOM     33  HN  UNL d   1      -1.144  52.666 -18.413  1.00  0.00     0.169 HD
BRANCH  31  34
ATOM     34  C   UNL d   1       1.056  52.553 -19.851  0.00  0.00     0.064 C 
ATOM     35  C   UNL d   1       1.278  53.421 -20.852  0.00  0.00     0.017 C 
ENDBRANCH  31  34
ENDBRANCH   1  30
BRANCH   6  36
ATOM     36  N   UNL d   1      -1.685  49.851 -17.116  0.00  0.00    -0.376 N 
ATOM     37  C   UNL d   1      -1.899  50.402 -15.796  0.00  0.00     0.153 C 
ATOM     38  C   UNL d   1      -0.596  50.980 -15.238  0.00  0.00     0.291 C 
ATOM     39  N   UNL d   1       0.375  51.007 -16.293  0.00  0.00     0.087 N 
ATOM     40  C   UNL d   1       1.550  51.780 -16.022  0.00  0.00     0.310 C 
ATOM     41  C   UNL d   1       0.703  49.698 -16.831  0.00  0.00     0.291 C 
ATOM     42  C   UNL d   1      -0.512  49.012 -17.403  0.00  0.00     0.153 C 
ENDBRANCH   6  36
TORSDOF 7
ENDMDL
MODEL 2
REMARK VINA RESULT:      -7.9      4.326     10.142
REMARK  7 active torsions:
REMARK  status: ('A' for Active; 'I' for Inactive)
REMARK    1  A    between atoms: C_2  and  C_3 
REMARK       I    between atoms: C_3  and  N_5 
REMARK    2  A    between atoms: N_5  and  C_7 
REMARK    3  A    between atoms: C_9  and  N_10 
REMARK    4  A    between atoms: N_10  and  C_12 
REMARK    5  A    between atoms: C_18  and  C_19 
REMARK    6  A    between atoms: C_31  and  O_32 
REMARK    7  A    between atoms: C_35  and  N_36 
ROOT
ATOM      1  C   UNL d   1       0.088  51.858 -19.219  0.00  0.00     0.064 A 
ATOM      2  C   UNL d   1       0.914  52.184 -18.173  0.00  0.00     0.065 A 
ATOM      3  C   UNL d   1       1.069  51.430 -17.029  0.00  0.00     0.084 A 
ATOM      4  C   UNL d   1       0.341  50.260 -16.925  0.00  0.00     0.097 A 
ATOM      5  C   UNL d   1      -0.506  49.889 -17.954  0.00  0.00     0.070 A 
ATOM      6  C   UNL d   1      -0.635  50.672 -19.086  0.00  0.00     0.060 A 
ENDROOT
BRANCH   3   7
ATOM      7  N   UNL d   1       1.952  51.909 -16.043  0.00  0.00    -0.189 N 
ATOM      8  HN  UNL d   1       2.750  52.461 -16.353  1.00  0.00     0.184 HD
BRANCH   7   9
ATOM      9  C   UNL d   1       1.813  51.678 -14.647  0.00  0.00     0.683 A 
ATOM     10  N   UNL d   1       2.610  50.821 -13.976  0.00  0.00    -0.200 N 
ATOM     11  C   UNL d   1       2.470  50.608 -12.634  0.00  0.00     0.132 A 
ATOM     12  HN  UNL d   1       3.339  50.318 -14.485  1.00  0.00     0.183 HD
ATOM     13  C   UNL d   1       1.466  51.309 -11.965  0.00  0.00     0.078 A 
ATOM     14 CL   UNL d   1       1.214  51.098 -10.239  0.00  0.00    -0.080 Cl
ATOM     15  C   UNL d   1       0.650  52.185 -12.647  0.00  0.00     0.086 A 
ATOM     16  N   UNL d   1       0.842  52.346 -13.965  0.00  0.00    -0.189 N 
ATOM     17  HN  UNL d   1       0.240  52.993 -14.475  1.00  0.00     0.184 HD
BRANCH  15  18
ATOM     18  C   UNL d   1      -0.392  52.913 -11.932  0.00  0.00     0.038 A 
ATOM     19  C   UNL d   1      -1.723  52.585 -11.835  0.00  0.00     0.069 A 
ATOM     20  C   UNL d   1      -2.428  51.523 -12.363  0.00  0.00     0.032 A 
ATOM     21  N   UNL d   1      -2.277  53.547 -11.079  0.00  0.00    -0.267 N 
ATOM     22  C   UNL d   1      -3.786  51.467 -12.083  0.00  0.00     0.004 A 
ATOM     23  C   UNL d   1      -4.382  52.441 -11.309  0.00  0.00     0.019 A 
ATOM     24  C   UNL d   1      -3.609  53.484 -10.809  0.00  0.00     0.116 A 
ATOM     25  N   UNL d   1      -1.399  54.440 -10.704  0.00  0.00    -0.304 N 
ATOM     26  C   UNL d   1      -0.219  54.078 -11.214  0.00  0.00     0.123 A 
ATOM     27  HN  UNL d   1      -1.581  55.261 -10.126  1.00  0.00     0.186 HD
ENDBRANCH  15  18
ENDBRANCH   7   9
ENDBRANCH   3   7
BRANCH   4  28
ATOM     28  O   UNL d   1       0.501  49.505 -15.772  0.00  0.00    -0.354 OA
ATOM     29  C   UNL d   1      -0.670  49.090 -15.057  0.00  0.00     0.210 C 
ENDBRANCH   4  28
BRANCH   1  30
ATOM     30  N   UNL d   1      -0.055  52.662 -20.389  0.00  0.00    -0.322 N 
ATOM     31  C   UNL d   1       0.987  52.590 -21.384  0.00  0.00     0.244 C 
ATOM     32  O   UNL d   1       2.023  51.903 -21.216  0.00  0.00    -0.268 OA
ATOM     33  HN  UNL d   1      -0.866  53.266 -20.518  1.00  0.00     0.169 HD
BRANCH  31  34
ATOM     34  C   UNL d   1       0.740  53.379 -22.599  0.00  0.00     0.064 C 
ATOM     35  C   UNL d   1       0.714  52.768 -23.795  0.00  0.00     0.017 C 
ENDBRANCH  31  34
ENDBRANCH   1  30
BRANCH   6  36
ATOM     36  N   UNL d   1      -1.538  50.219 -20.090  0.00  0.00    -0.376 N 
ATOM     37  C   UNL d   1      -1.129  49.456 -21.248  0.00  0.00     0.153 C 
ATOM     38  C   UNL d   1      -1.805  49.994 -22.511  0.00  0.00     0.291 C 
ATOM     39  N   UNL d   1      -2.448  51.233 -22.187  0.00  0.00     0.087 N 
ATOM     40  C   UNL d   1      -2.879  52.011 -23.311  0.00  0.00     0.310 C 
ATOM     41  C   UNL d   1      -3.490  51.116 -21.182  0.00  0.00     0.291 C 
ATOM     42  C   UNL d   1      -2.949  50.577 -19.882  0.00  0.00     0.153 C 
ENDBRANCH   6  36
TORSDOF 7
ENDMDL
MODEL 3
REMARK VINA RESULT:      -7.5      3.265      8.576
REMARK  7 active torsions:
REMARK  status: ('A' for Active; 'I' for Inactive)
REMARK    1  A    between atoms: C_2  and  C_3 
REMARK       I    between atoms: C_3  and  N_5 
REMARK    2  A    between atoms: N_5  and  C_7 
REMARK    3  A    between atoms: C_9  and  N_10 
REMARK    4  A    between atoms: N_10  and  C_12 
REMARK    5  A    between atoms: C_18  and  C_19 
REMARK    6  A    between atoms: C_31  and  O_32 
REMARK    7  A    between atoms: C_35  and  N_36 
ROOT
ATOM      1  C   UNL d   1      -0.938  50.079 -21.162  0.00  0.00     0.064 A 
ATOM      2  C   UNL d   1      -0.560  49.620 -19.925  0.00  0.00     0.065 A 
ATOM      3  C   UNL d   1      -1.323  48.792 -19.128  0.00  0.00     0.084 A 
ATOM      4  C   UNL d   1      -2.556  48.393 -19.606  0.00  0.00     0.097 A 
ATOM      5  C   UNL d   1      -2.981  48.830 -20.847  0.00  0.00     0.070 A 
ATOM      6  C   UNL d   1      -2.189  49.660 -21.619  0.00  0.00     0.060 A 
ENDROOT
BRANCH   3   7
ATOM      7  N   UNL d   1      -0.794  48.417 -17.879  0.00  0.00    -0.189 N 
ATOM      8  HN  UNL d   1      -0.413  47.476 -17.790  1.00  0.00     0.184 HD
BRANCH   7   9
ATOM      9  C   UNL d   1      -0.752  49.254 -16.731  0.00  0.00     0.683 A 
ATOM     10  N   UNL d   1      -1.868  49.776 -16.179  0.00  0.00    -0.200 N 
ATOM     11  C   UNL d   1      -1.817  50.577 -15.073  0.00  0.00     0.132 A 
ATOM     12  HN  UNL d   1      -2.774  49.565 -16.598  1.00  0.00     0.183 HD
ATOM     13  C   UNL d   1      -0.563  50.848 -14.522  0.00  0.00     0.078 A 
ATOM     14 CL   UNL d   1      -0.403  51.868 -13.100  0.00  0.00    -0.080 Cl
ATOM     15  C   UNL d   1       0.578  50.317 -15.083  0.00  0.00     0.086 A 
ATOM     16  N   UNL d   1       0.455  49.537 -16.168  0.00  0.00    -0.189 N 
ATOM     17  HN  UNL d   1       1.297  49.142 -16.588  1.00  0.00     0.184 HD
BRANCH  15  18
ATOM     18  C   UNL d   1       1.879  50.605 -14.492  0.00  0.00     0.038 A 
ATOM     19  C   UNL d   1       2.843  51.459 -14.972  0.00  0.00     0.069 A 
ATOM     20  C   UNL d   1       2.860  52.252 -16.100  0.00  0.00     0.032 A 
ATOM     21  N   UNL d   1       3.854  51.392 -14.091  0.00  0.00    -0.267 N 
ATOM     22  C   UNL d   1       3.998  53.016 -16.316  0.00  0.00     0.004 A 
ATOM     23  C   UNL d   1       5.052  52.968 -15.428  0.00  0.00     0.019 A 
ATOM     24  C   UNL d   1       4.966  52.144 -14.310  0.00  0.00     0.116 A 
ATOM     25  N   UNL d   1       3.594  50.568 -13.110  0.00  0.00    -0.304 N 
ATOM     26  C   UNL d   1       2.378  50.062 -13.326  0.00  0.00     0.123 A 
ATOM     27  HN  UNL d   1       4.208  50.353 -12.323  1.00  0.00     0.186 HD
ENDBRANCH  15  18
ENDBRANCH   7   9
ENDBRANCH   3   7
BRANCH   4  28
ATOM     28  O   UNL d   1      -3.318  47.560 -18.800  0.00  0.00    -0.354 OA
ATOM     29  C   UNL d   1      -4.727  47.467 -19.049  0.00  0.00     0.210 C 
ENDBRANCH   4  28
BRANCH   1  30
ATOM     30  N   UNL d   1      -0.129  50.938 -21.963  0.00  0.00    -0.322 N 
ATOM     31  C   UNL d   1      -0.067  52.333 -21.601  0.00  0.00     0.244 C 
ATOM     32  O   UNL d   1      -0.745  52.807 -20.659  0.00  0.00    -0.268 OA
ATOM     33  HN  UNL d   1       0.389  50.578 -22.765  1.00  0.00     0.169 HD
BRANCH  31  34
ATOM     34  C   UNL d   1       0.847  53.145 -22.417  0.00  0.00     0.064 C 
ATOM     35  C   UNL d   1       1.582  54.106 -21.834  0.00  0.00     0.017 C 
ENDBRANCH  31  34
ENDBRANCH   1  30
BRANCH   6  36
ATOM     36  N   UNL d   1      -2.711  50.070 -22.879  0.00  0.00    -0.376 N 
ATOM     37  C   UNL d   1      -2.546  49.310 -24.098  0.00  0.00     0.153 C 
ATOM     38  C   UNL d   1      -2.157  50.231 -25.257  0.00  0.00     0.291 C 
ATOM     39  N   UNL d   1      -1.847  51.524 -24.722  0.00  0.00     0.087 N 
ATOM     40  C   UNL d   1      -1.190  52.420 -25.627  0.00  0.00     0.310 C 
ATOM     41  C   UNL d   1      -2.958  52.167 -24.041  0.00  0.00     0.291 C 
ATOM     42  C   UNL d   1      -3.447  51.342 -22.877  0.00  0.00     0.153 C 
ENDBRANCH   6  36
TORSDOF 7
ENDMDL
MODEL 4
REMARK VINA RESULT:      -7.5      2.787      5.064
REMARK  7 active torsions:
REMARK  status: ('A' for Active; 'I' for Inactive)
REMARK    1  A    between atoms: C_2  and  C_3 
REMARK       I    between atoms: C_3  and  N_5 
REMARK    2  A    between atoms: N_5  and  C_7 
REMARK    3  A    between atoms: C_9  and  N_10 
REMARK    4  A    between atoms: N_10  and  C_12 
REMARK    5  A    between atoms: C_18  and  C_19 
REMARK    6  A    between atoms: C_31  and  O_32 
REMARK    7  A    between atoms: C_35  and  N_36 
ROOT
ATOM      1  C   UNL d   1       0.034  50.542 -15.817  0.00  0.00     0.064 A 
ATOM      2  C   UNL d   1       0.483  50.447 -17.111  0.00  0.00     0.065 A 
ATOM      3  C   UNL d   1      -0.315  50.173 -18.202  0.00  0.00     0.084 A 
ATOM      4  C   UNL d   1      -1.664  49.979 -17.981  0.00  0.00     0.097 A 
ATOM      5  C   UNL d   1      -2.165  50.063 -16.694  0.00  0.00     0.070 A 
ATOM      6  C   UNL d   1      -1.334  50.340 -15.624  0.00  0.00     0.060 A 
ENDROOT
BRANCH   3   7
ATOM      7  N   UNL d   1       0.304  50.102 -19.464  0.00  0.00    -0.189 N 
ATOM      8  HN  UNL d   1       0.592  49.183 -19.798  1.00  0.00     0.184 HD
BRANCH   7   9
ATOM      9  C   UNL d   1       0.558  51.218 -20.308  0.00  0.00     0.683 A 
ATOM     10  N   UNL d   1       1.160  52.339 -19.857  0.00  0.00    -0.200 N 
ATOM     11  C   UNL d   1       1.402  53.404 -20.677  0.00  0.00     0.132 A 
ATOM     12  HN  UNL d   1       1.444  52.391 -18.878  1.00  0.00     0.183 HD
ATOM     13  C   UNL d   1       1.004  53.304 -22.011  0.00  0.00     0.078 A 
ATOM     14 CL   UNL d   1       1.275  54.626 -23.137  0.00  0.00    -0.080 Cl
ATOM     15  C   UNL d   1       0.388  52.161 -22.473  0.00  0.00     0.086 A 
ATOM     16  N   UNL d   1       0.182  51.152 -21.614  0.00  0.00    -0.189 N 
ATOM     17  HN  UNL d   1      -0.274  50.304 -21.952  1.00  0.00     0.184 HD
BRANCH  15  18
ATOM     18  C   UNL d   1      -0.018  52.070 -23.871  0.00  0.00     0.038 A 
ATOM     19  C   UNL d   1      -1.298  52.026 -24.367  0.00  0.00     0.069 A 
ATOM     20  C   UNL d   1      -2.515  52.051 -23.717  0.00  0.00     0.032 A 
ATOM     21  N   UNL d   1      -1.166  51.948 -25.701  0.00  0.00    -0.267 N 
ATOM     22  C   UNL d   1      -3.653  51.990 -24.509  0.00  0.00     0.004 A 
ATOM     23  C   UNL d   1      -3.547  51.908 -25.882  0.00  0.00     0.019 A 
ATOM     24  C   UNL d   1      -2.286  51.888 -26.470  0.00  0.00     0.116 A 
ATOM     25  N   UNL d   1       0.089  51.939 -26.068  0.00  0.00    -0.304 N 
ATOM     26  C   UNL d   1       0.829  52.014 -24.959  0.00  0.00     0.123 A 
ATOM     27  HN  UNL d   1       0.439  51.885 -27.025  1.00  0.00     0.186 HD
ENDBRANCH  15  18
ENDBRANCH   7   9
ENDBRANCH   3   7
BRANCH   4  28
ATOM     28  O   UNL d   1      -2.462  49.704 -19.082  0.00  0.00    -0.354 OA
ATOM     29  C   UNL d   1      -3.134  50.792 -19.730  0.00  0.00     0.210 C 
ENDBRANCH   4  28
BRANCH   1  30
ATOM     30  N   UNL d   1       0.884  50.824 -14.707  0.00  0.00    -0.322 N 
ATOM     31  C   UNL d   1       1.708  49.753 -14.203  0.00  0.00     0.244 C 
ATOM     32  O   UNL d   1       1.645  48.589 -14.666  0.00  0.00    -0.268 OA
ATOM     33  HN  UNL d   1       0.909  51.752 -14.285  1.00  0.00     0.169 HD
BRANCH  31  34
ATOM     34  C   UNL d   1       2.619  50.131 -13.113  0.00  0.00     0.064 C 
ATOM     35  C   UNL d   1       2.802  51.429 -12.820  0.00  0.00     0.017 C 
ENDBRANCH  31  34
ENDBRANCH   1  30
BRANCH   6  36
ATOM     36  N   UNL d   1      -1.933  50.397 -14.334  0.00  0.00    -0.376 N 
ATOM     37  C   UNL d   1      -2.537  51.591 -13.785  0.00  0.00     0.153 C 
ATOM     38  C   UNL d   1      -2.110  51.789 -12.329  0.00  0.00     0.291 C 
ATOM     39  N   UNL d   1      -1.058  50.860 -12.037  0.00  0.00     0.087 N 
ATOM     40  C   UNL d   1      -0.348  51.103 -10.816  0.00  0.00     0.310 C 
ATOM     41  C   UNL d   1      -1.444  49.465 -12.166  0.00  0.00     0.291 C 
ATOM     42  C   UNL d   1      -1.905  49.144 -13.566  0.00  0.00     0.153 C 
ENDBRANCH   6  36
TORSDOF 7
ENDMDL
MODEL 5
REMARK VINA RESULT:      -7.4      3.745      9.547
REMARK  7 active torsions:
REMARK  status: ('A' for Active; 'I' for Inactive)
REMARK    1  A    between atoms: C_2  and  C_3 
REMARK       I    between atoms: C_3  and  N_5 
REMARK    2  A    between atoms: N_5  and  C_7 
REMARK    3  A    between atoms: C_9  and  N_10 
REMARK    4  A    between atoms: N_10  and  C_12 
REMARK    5  A    between atoms: C_18  and  C_19 
REMARK    6  A    between atoms: C_31  and  O_32 
REMARK    7  A    between atoms: C_35  and  N_36 
ROOT
ATOM      1  C   UNL d   1      -0.499  50.871 -20.956  0.00  0.00     0.064 A 
ATOM      2  C   UNL d   1       0.292  50.941 -19.837  0.00  0.00     0.065 A 
ATOM      3  C   UNL d   1      -0.128  50.638 -18.558  0.00  0.00     0.084 A 
ATOM      4  C   UNL d   1      -1.439  50.235 -18.389  0.00  0.00     0.097 A 
ATOM      5  C   UNL d   1      -2.275  50.150 -19.487  0.00  0.00     0.070 A 
ATOM      6  C   UNL d   1      -1.818  50.462 -20.754  0.00  0.00     0.060 A 
ENDROOT
BRANCH   3   7
ATOM      7  N   UNL d   1       0.806  50.768 -17.514  0.00  0.00    -0.189 N 
ATOM      8  HN  UNL d   1       1.689  51.231 -17.726  1.00  0.00     0.184 HD
BRANCH   7   9
ATOM      9  C   UNL d   1       0.609  50.303 -16.185  0.00  0.00     0.683 A 
ATOM     10  N   UNL d   1       0.781  49.008 -15.843  0.00  0.00    -0.200 N 
ATOM     11  C   UNL d   1       0.593  48.571 -14.563  0.00  0.00     0.132 A 
ATOM     12  HN  UNL d   1       1.061  48.338 -16.560  1.00  0.00     0.183 HD
ATOM     13  C   UNL d   1       0.210  49.510 -13.603  0.00  0.00     0.078 A 
ATOM     14 CL   UNL d   1      -0.055  49.038 -11.932  0.00  0.00    -0.080 Cl
ATOM     15  C   UNL d   1       0.033  50.832 -13.950  0.00  0.00     0.086 A 
ATOM     16  N   UNL d   1       0.236  51.193 -15.226  0.00  0.00    -0.189 N 
ATOM     17  HN  UNL d   1       0.106  52.171 -15.487  1.00  0.00     0.184 HD
BRANCH  15  18
ATOM     18  C   UNL d   1      -0.362  51.802 -12.935  0.00  0.00     0.038 A 
ATOM     19  C   UNL d   1      -1.635  52.084 -12.501  0.00  0.00     0.069 A 
ATOM     20  C   UNL d   1      -2.851  51.559 -12.883  0.00  0.00     0.032 A 
ATOM     21  N   UNL d   1      -1.493  53.036 -11.564  0.00  0.00    -0.267 N 
ATOM     22  C   UNL d   1      -3.980  52.058 -12.249  0.00  0.00     0.004 A 
ATOM     23  C   UNL d   1      -3.865  53.037 -11.283  0.00  0.00     0.019 A 
ATOM     24  C   UNL d   1      -2.605  53.520 -10.947  0.00  0.00     0.116 A 
ATOM     25  N   UNL d   1      -0.240  53.364 -11.386  0.00  0.00    -0.304 N 
ATOM     26  C   UNL d   1       0.490  52.618 -12.218  0.00  0.00     0.123 A 
ATOM     27  HN  UNL d   1       0.115  54.060 -10.729  1.00  0.00     0.186 HD
ENDBRANCH  15  18
ENDBRANCH   7   9
ENDBRANCH   3   7
BRANCH   4  28
ATOM     28  O   UNL d   1      -1.855  49.931 -17.101  0.00  0.00    -0.354 OA
ATOM     29  C   UNL d   1      -3.134  50.410 -16.663  0.00  0.00     0.210 C 
ENDBRANCH   4  28
BRANCH   1  30
ATOM     30  N   UNL d   1      -0.037  51.194 -22.267  0.00  0.00    -0.322 N 
ATOM     31  C   UNL d   1       0.358  52.558 -22.522  0.00  0.00     0.244 C 
ATOM     32  O   UNL d   1       0.245  53.458 -21.657  0.00  0.00    -0.268 OA
ATOM     33  HN  UNL d   1       0.012  50.485 -22.998  1.00  0.00     0.169 HD
BRANCH  31  34
ATOM     34  C   UNL d   1       0.900  52.804 -23.866  0.00  0.00     0.064 C 
ATOM     35  C   UNL d   1       0.864  51.828 -24.788  0.00  0.00     0.017 C 
ENDBRANCH  31  34
ENDBRANCH   1  30
BRANCH   6  36
ATOM     36  N   UNL d   1      -2.750  50.357 -21.826  0.00  0.00    -0.376 N 
ATOM     37  C   UNL d   1      -2.692  49.326 -22.838  0.00  0.00     0.153 C 
ATOM     38  C   UNL d   1      -2.915  49.925 -24.228  0.00  0.00     0.291 C 
ATOM     39  N   UNL d   1      -2.877  51.354 -24.116  0.00  0.00     0.087 N 
ATOM     40  C   UNL d   1      -2.780  52.063 -25.358  0.00  0.00     0.310 C 
ATOM     41  C   UNL d   1      -3.909  51.910 -23.258  0.00  0.00     0.291 C 
ATOM     42  C   UNL d   1      -3.806  51.380 -21.850  0.00  0.00     0.153 C 
ENDBRANCH   6  36
TORSDOF 7
ENDMDL
MODEL 6
REMARK VINA RESULT:      -7.4      2.643      6.874
REMARK  7 active torsions:
REMARK  status: ('A' for Active; 'I' for Inactive)
REMARK    1  A    between atoms: C_2  and  C_3 
REMARK       I    between atoms: C_3  and  N_5 
REMARK    2  A    between atoms: N_5  and  C_7 
REMARK    3  A    between atoms: C_9  and  N_10 
REMARK    4  A    between atoms: N_10  and  C_12 
REMARK    5  A    between atoms: C_18  and  C_19 
REMARK    6  A    between atoms: C_31  and  O_32 
REMARK    7  A    between atoms: C_35  and  N_36 
ROOT
ATOM      1  C   UNL d   1      -3.695  49.200 -23.082  0.00  0.00     0.064 A 
ATOM      2  C   UNL d   1      -2.551  49.632 -23.705  0.00  0.00     0.065 A 
ATOM      3  C   UNL d   1      -2.447  49.911 -25.052  0.00  0.00     0.084 A 
ATOM      4  C   UNL d   1      -3.573  49.744 -25.833  0.00  0.00     0.097 A 
ATOM      5  C   UNL d   1      -4.750  49.310 -25.252  0.00  0.00     0.070 A 
ATOM      6  C   UNL d   1      -4.817  49.040 -23.897  0.00  0.00     0.060 A 
ENDROOT
BRANCH   3   7
ATOM      7  N   UNL d   1      -1.196  50.339 -25.537  0.00  0.00    -0.189 N 
ATOM      8  HN  UNL d   1      -0.732  49.751 -26.228  1.00  0.00     0.184 HD
BRANCH   7   9
ATOM      9  C   UNL d   1      -0.533  51.530 -25.134  0.00  0.00     0.683 A 
ATOM     10  N   UNL d   1      -0.262  52.531 -25.998  0.00  0.00    -0.200 N 
ATOM     11  C   UNL d   1       0.374  53.673 -25.600  0.00  0.00     0.132 A 
ATOM     12  HN  UNL d   1      -0.541  52.432 -26.975  1.00  0.00     0.183 HD
ATOM     13  C   UNL d   1       0.743  53.779 -24.258  0.00  0.00     0.078 A 
ATOM     14 CL   UNL d   1       1.563  55.212 -23.658  0.00  0.00    -0.080 Cl
ATOM     15  C   UNL d   1       0.467  52.759 -23.374  0.00  0.00     0.086 A 
ATOM     16  N   UNL d   1      -0.160  51.665 -23.832  0.00  0.00    -0.189 N 
ATOM     17  HN  UNL d   1      -0.366  50.907 -23.181  1.00  0.00     0.184 HD
BRANCH  15  18
ATOM     18  C   UNL d   1       0.855  52.888 -21.974  0.00  0.00     0.038 A 
ATOM     19  C   UNL d   1       0.598  52.005 -20.952  0.00  0.00     0.069 A 
ATOM     20  C   UNL d   1      -0.072  50.800 -20.953  0.00  0.00     0.032 A 
ATOM     21  N   UNL d   1       1.151  52.551 -19.857  0.00  0.00    -0.267 N 
ATOM     22  C   UNL d   1      -0.167  50.131 -19.741  0.00  0.00     0.004 A 
ATOM     23  C   UNL d   1       0.391  50.668 -18.599  0.00  0.00     0.019 A 
ATOM     24  C   UNL d   1       1.053  51.890 -18.672  0.00  0.00     0.116 A 
ATOM     25  N   UNL d   1       1.725  53.697 -20.118  0.00  0.00    -0.304 N 
ATOM     26  C   UNL d   1       1.562  53.936 -21.422  0.00  0.00     0.123 A 
ATOM     27  HN  UNL d   1       2.210  54.296 -19.450  1.00  0.00     0.186 HD
ENDBRANCH  15  18
ENDBRANCH   7   9
ENDBRANCH   3   7
BRANCH   4  28
ATOM     28  O   UNL d   1      -3.462  50.027 -27.187  0.00  0.00    -0.354 OA
ATOM     29  C   UNL d   1      -3.879  49.031 -28.131  0.00  0.00     0.210 C 
ENDBRANCH   4  28
BRANCH   1  30
ATOM     30  N   UNL d   1      -3.771  48.916 -21.686  0.00  0.00    -0.322 N 
ATOM     31  C   UNL d   1      -4.032  50.015 -20.790  0.00  0.00     0.244 C 
ATOM     32  O   UNL d   1      -4.126  51.198 -21.196  0.00  0.00    -0.268 OA
ATOM     33  HN  UNL d   1      -3.645  47.967 -21.335  1.00  0.00     0.169 HD
BRANCH  31  34
ATOM     34  C   UNL d   1      -4.179  49.641 -19.376  0.00  0.00     0.064 C 
ATOM     35  C   UNL d   1      -3.436  50.260 -18.444  0.00  0.00     0.017 C 
ENDBRANCH  31  34
ENDBRANCH   1  30
BRANCH   6  36
ATOM     36  N   UNL d   1      -6.065  48.586 -23.385  0.00  0.00    -0.376 N 
ATOM     37  C   UNL d   1      -7.062  49.464 -22.815  0.00  0.00     0.153 C 
ATOM     38  C   UNL d   1      -7.625  48.871 -21.522  0.00  0.00     0.291 C 
ATOM     39  N   UNL d   1      -6.820  47.743 -21.154  0.00  0.00     0.087 N 
ATOM     40  C   UNL d   1      -7.029  47.249 -19.826  0.00  0.00     0.310 C 
ATOM     41  C   UNL d   1      -6.820  46.670 -22.134  0.00  0.00     0.291 C 
ATOM     42  C   UNL d   1      -6.296  47.136 -23.469  0.00  0.00     0.153 C 
ENDBRANCH   6  36
TORSDOF 7
ENDMDL
MODEL 7
REMARK VINA RESULT:      -7.3      3.719      8.503
REMARK  7 active torsions:
REMARK  status: ('A' for Active; 'I' for Inactive)
REMARK    1  A    between atoms: C_2  and  C_3 
REMARK       I    between atoms: C_3  and  N_5 
REMARK    2  A    between atoms: N_5  and  C_7 
REMARK    3  A    between atoms: C_9  and  N_10 
REMARK    4  A    between atoms: N_10  and  C_12 
REMARK    5  A    between atoms: C_18  and  C_19 
REMARK    6  A    between atoms: C_31  and  O_32 
REMARK    7  A    between atoms: C_35  and  N_36 
ROOT
ATOM      1  C   UNL d   1      -2.584  50.787 -19.020  0.00  0.00     0.064 A 
ATOM      2  C   UNL d   1      -2.598  50.427 -17.695  0.00  0.00     0.065 A 
ATOM      3  C   UNL d   1      -3.213  49.299 -17.194  0.00  0.00     0.084 A 
ATOM      4  C   UNL d   1      -3.863  48.469 -18.086  0.00  0.00     0.097 A 
ATOM      5  C   UNL d   1      -3.878  48.789 -19.431  0.00  0.00     0.070 A 
ATOM      6  C   UNL d   1      -3.250  49.929 -19.897  0.00  0.00     0.060 A 
ENDROOT
BRANCH   3   7
ATOM      7  N   UNL d   1      -3.141  49.077 -15.805  0.00  0.00    -0.189 N 
ATOM      8  HN  UNL d   1      -3.510  48.197 -15.448  1.00  0.00     0.184 HD
BRANCH   7   9
ATOM      9  C   UNL d   1      -2.592  49.990 -14.864  0.00  0.00     0.683 A 
ATOM     10  N   UNL d   1      -3.367  50.726 -14.039  0.00  0.00    -0.200 N 
ATOM     11  C   UNL d   1      -2.829  51.599 -13.136  0.00  0.00     0.132 A 
ATOM     12  HN  UNL d   1      -4.381  50.627 -14.091  1.00  0.00     0.183 HD
ATOM     13  C   UNL d   1      -1.439  51.713 -13.088  0.00  0.00     0.078 A 
ATOM     14 CL   UNL d   1      -0.661  52.810 -11.957  0.00  0.00    -0.080 Cl
ATOM     15  C   UNL d   1      -0.646  50.963 -13.929  0.00  0.00     0.086 A 
ATOM     16  N   UNL d   1      -1.240  50.125 -14.792  0.00  0.00    -0.189 N 
ATOM     17  HN  UNL d   1      -0.657  49.568 -15.417  1.00  0.00     0.184 HD
BRANCH  15  18
ATOM     18  C   UNL d   1       0.806  51.090 -13.863  0.00  0.00     0.038 A 
ATOM     19  C   UNL d   1       1.639  51.634 -14.810  0.00  0.00     0.069 A 
ATOM     20  C   UNL d   1       1.360  52.189 -16.042  0.00  0.00     0.032 A 
ATOM     21  N   UNL d   1       2.878  51.530 -14.302  0.00  0.00    -0.267 N 
ATOM     22  C   UNL d   1       2.437  52.660 -16.780  0.00  0.00     0.004 A 
ATOM     23  C   UNL d   1       3.720  52.566 -16.283  0.00  0.00     0.019 A 
ATOM     24  C   UNL d   1       3.928  51.994 -15.032  0.00  0.00     0.116 A 
ATOM     25  N   UNL d   1       2.877  50.967 -13.122  0.00  0.00    -0.304 N 
ATOM     26  C   UNL d   1       1.608  50.682 -12.818  0.00  0.00     0.123 A 
ATOM     27  HN  UNL d   1       3.694  50.781 -12.540  1.00  0.00     0.186 HD
ENDBRANCH  15  18
ENDBRANCH   7   9
ENDBRANCH   3   7
BRANCH   4  28
ATOM     28  O   UNL d   1      -4.480  47.336 -17.575  0.00  0.00    -0.354 OA
ATOM     29  C   UNL d   1      -5.621  46.808 -18.263  0.00  0.00     0.210 C 
ENDBRANCH   4  28
BRANCH   1  30
ATOM     30  N   UNL d   1      -1.942  51.963 -19.509  0.00  0.00    -0.322 N 
ATOM     31  C   UNL d   1      -0.508  51.932 -19.659  0.00  0.00     0.244 C 
ATOM     32  O   UNL d   1       0.177  50.940 -19.314  0.00  0.00    -0.268 OA
ATOM     33  HN  UNL d   1      -2.480  52.797 -19.745  1.00  0.00     0.169 HD
BRANCH  31  34
ATOM     34  C   UNL d   1       0.080  53.146 -20.243  0.00  0.00     0.064 C 
ATOM     35  C   UNL d   1       1.403  53.199 -20.473  0.00  0.00     0.017 C 
ENDBRANCH  31  34
ENDBRANCH   1  30
BRANCH   6  36
ATOM     36  N   UNL d   1      -3.326  50.187 -21.295  0.00  0.00    -0.376 N 
ATOM     37  C   UNL d   1      -4.340  51.021 -21.901  0.00  0.00     0.153 C 
ATOM     38  C   UNL d   1      -4.898  50.359 -23.163  0.00  0.00     0.291 C 
ATOM     39  N   UNL d   1      -4.410  49.012 -23.219  0.00  0.00     0.087 N 
ATOM     40  C   UNL d   1      -5.061  48.164 -24.173  0.00  0.00     0.310 C 
ATOM     41  C   UNL d   1      -2.963  48.908 -23.305  0.00  0.00     0.291 C 
ATOM     42  C   UNL d   1      -2.289  49.544 -22.116  0.00  0.00     0.153 C 
ENDBRANCH   6  36
TORSDOF 7
ENDMDL
MODEL 8
REMARK VINA RESULT:      -7.3      2.177      4.158
REMARK  7 active torsions:
REMARK  status: ('A' for Active; 'I' for Inactive)
REMARK    1  A    between atoms: C_2  and  C_3 
REMARK       I    between atoms: C_3  and  N_5 
REMARK    2  A    between atoms: N_5  and  C_7 
REMARK    3  A    between atoms: C_9  and  N_10 
REMARK    4  A    between atoms: N_10  and  C_12 
REMARK    5  A    between atoms: C_18  and  C_19 
REMARK    6  A    between atoms: C_31  and  O_32 
REMARK    7  A    between atoms: C_35  and  N_36 
ROOT
ATOM      1  C   UNL d   1      -1.656  50.105 -16.447  0.00  0.00     0.064 A 
ATOM      2  C   UNL d   1      -2.428  50.389 -17.545  0.00  0.00     0.065 A 
ATOM      3  C   UNL d   1      -1.960  50.970 -18.706  0.00  0.00     0.084 A 
ATOM      4  C   UNL d   1      -0.618  51.290 -18.771  0.00  0.00     0.097 A 
ATOM      5  C   UNL d   1       0.201  51.023 -17.689  0.00  0.00     0.070 A 
ATOM      6  C   UNL d   1      -0.304  50.440 -16.541  0.00  0.00     0.060 A 
ENDROOT
BRANCH   3   7
ATOM      7  N   UNL d   1      -2.886  51.203 -19.740  0.00  0.00    -0.189 N 
ATOM      8  HN  UNL d   1      -3.610  51.902 -19.577  1.00  0.00     0.184 HD
BRANCH   7   9
ATOM      9  C   UNL d   1      -2.886  50.537 -20.995  0.00  0.00     0.683 A 
ATOM     10  N   UNL d   1      -3.162  49.220 -21.112  0.00  0.00    -0.200 N 
ATOM     11  C   UNL d   1      -3.162  48.589 -22.323  0.00  0.00     0.132 A 
ATOM     12  HN  UNL d   1      -3.378  48.682 -20.272  1.00  0.00     0.183 HD
ATOM     13  C   UNL d   1      -2.864  49.351 -23.455  0.00  0.00     0.078 A 
ATOM     14 CL   UNL d   1      -2.841  48.623 -25.053  0.00  0.00    -0.080 Cl
ATOM     15  C   UNL d   1      -2.581  50.695 -23.339  0.00  0.00     0.086 A 
ATOM     16  N   UNL d   1      -2.599  51.251 -22.118  0.00  0.00    -0.189 N 
ATOM     17  HN  UNL d   1      -2.390  52.245 -22.028  1.00  0.00     0.184 HD
BRANCH  15  18
ATOM     18  C   UNL d   1      -2.276  51.478 -24.531  0.00  0.00     0.038 A 
ATOM     19  C   UNL d   1      -1.035  51.824 -25.007  0.00  0.00     0.069 A 
ATOM     20  C   UNL d   1       0.224  51.548 -24.517  0.00  0.00     0.032 A 
ATOM     21  N   UNL d   1      -1.262  52.537 -26.122  0.00  0.00    -0.267 N 
ATOM     22  C   UNL d   1       1.303  52.046 -25.234  0.00  0.00     0.004 A 
ATOM     23  C   UNL d   1       1.100  52.782 -26.383  0.00  0.00     0.019 A 
ATOM     24  C   UNL d   1      -0.200  53.022 -26.819  0.00  0.00     0.116 A 
ATOM     25  N   UNL d   1      -2.540  52.660 -26.372  0.00  0.00    -0.304 N 
ATOM     26  C   UNL d   1      -3.198  52.014 -25.406  0.00  0.00     0.123 A 
ATOM     27  HN  UNL d   1      -2.956  53.155 -27.160  1.00  0.00     0.186 HD
ENDBRANCH  15  18
ENDBRANCH   7   9
ENDBRANCH   3   7
BRANCH   4  28
ATOM     28  O   UNL d   1      -0.154  51.873 -19.941  0.00  0.00    -0.354 OA
ATOM     29  C   UNL d   1       0.320  53.226 -19.891  0.00  0.00     0.210 C 
ENDBRANCH   4  28
BRANCH   1  30
ATOM     30  N   UNL d   1      -2.169  49.507 -15.258  0.00  0.00    -0.322 N 
ATOM     31  C   UNL d   1      -2.847  50.361 -14.314  0.00  0.00     0.244 C 
ATOM     32  O   UNL d   1      -2.935  51.601 -14.482  0.00  0.00    -0.268 OA
ATOM     33  HN  UNL d   1      -2.059  48.509 -15.081  1.00  0.00     0.169 HD
BRANCH  31  34
ATOM     34  C   UNL d   1      -3.421  49.669 -13.152  0.00  0.00     0.064 C 
ATOM     35  C   UNL d   1      -3.334  48.331 -13.065  0.00  0.00     0.017 C 
ENDBRANCH  31  34
ENDBRANCH   1  30
BRANCH   6  36
ATOM     36  N   UNL d   1       0.609  50.212 -15.472  0.00  0.00    -0.376 N 
ATOM     37  C   UNL d   1       1.267  48.946 -15.240  0.00  0.00     0.153 C 
ATOM     38  C   UNL d   1       1.227  48.585 -13.753  0.00  0.00     0.291 C 
ATOM     39  N   UNL d   1       0.343  49.499 -13.090  0.00  0.00     0.087 N 
ATOM     40  C   UNL d   1      -0.033  49.128 -11.758  0.00  0.00     0.310 C 
ATOM     41  C   UNL d   1       0.761  50.888 -13.165  0.00  0.00     0.291 C 
ATOM     42  C   UNL d   1       0.855  51.364 -14.592  0.00  0.00     0.153 C 
ENDBRANCH   6  36
TORSDOF 7
ENDMDL
MODEL 9
REMARK VINA RESULT:      -7.2      4.047     10.182
REMARK  7 active torsions:
REMARK  status: ('A' for Active; 'I' for Inactive)
REMARK    1  A    between atoms: C_2  and  C_3 
REMARK       I    between atoms: C_3  and  N_5 
REMARK    2  A    between atoms: N_5  and  C_7 
REMARK    3  A    between atoms: C_9  and  N_10 
REMARK    4  A    between atoms: N_10  and  C_12 
REMARK    5  A    between atoms: C_18  and  C_19 
REMARK    6  A    between atoms: C_31  and  O_32 
REMARK    7  A    between atoms: C_35  and  N_36 
ROOT
ATOM      1  C   UNL d   1      -1.442  50.467 -18.569  0.00  0.00     0.064 A 
ATOM      2  C   UNL d   1      -0.532  50.912 -17.644  0.00  0.00     0.065 A 
ATOM      3  C   UNL d   1       0.500  51.787 -17.914  0.00  0.00     0.084 A 
ATOM      4  C   UNL d   1       0.630  52.250 -19.209  0.00  0.00     0.097 A 
ATOM      5  C   UNL d   1      -0.263  51.830 -20.177  0.00  0.00     0.070 A 
ATOM      6  C   UNL d   1      -1.286  50.952 -19.869  0.00  0.00     0.060 A 
ENDROOT
BRANCH   3   7
ATOM      7  N   UNL d   1       1.354  52.139 -16.852  0.00  0.00    -0.189 N 
ATOM      8  HN  UNL d   1       2.089  52.819 -17.043  1.00  0.00     0.184 HD
BRANCH   7   9
ATOM      9  C   UNL d   1       1.268  51.618 -15.533  0.00  0.00     0.683 A 
ATOM     10  N   UNL d   1       1.890  50.477 -15.167  0.00  0.00    -0.200 N 
ATOM     11  C   UNL d   1       1.803  49.985 -13.896  0.00  0.00     0.132 A 
ATOM     12  HN  UNL d   1       2.442  49.969 -15.860  1.00  0.00     0.183 HD
ATOM     13  C   UNL d   1       1.041  50.702 -12.971  0.00  0.00     0.078 A 
ATOM     14 CL   UNL d   1       0.875  50.144 -11.313  0.00  0.00    -0.080 Cl
ATOM     15  C   UNL d   1       0.405  51.866 -13.341  0.00  0.00     0.086 A 
ATOM     16  N   UNL d   1       0.533  52.292 -14.607  0.00  0.00    -0.189 N 
ATOM     17  HN  UNL d   1       0.063  53.154 -14.885  1.00  0.00     0.184 HD
BRANCH  15  18
ATOM     18  C   UNL d   1      -0.383  52.606 -12.361  0.00  0.00     0.038 A 
ATOM     19  C   UNL d   1      -1.731  52.495 -12.121  0.00  0.00     0.069 A 
ATOM     20  C   UNL d   1      -2.687  51.694 -12.709  0.00  0.00     0.032 A 
ATOM     21  N   UNL d   1      -1.993  53.369 -11.135  0.00  0.00    -0.267 N 
ATOM     22  C   UNL d   1      -3.987  51.815 -12.239  0.00  0.00     0.004 A 
ATOM     23  C   UNL d   1      -4.286  52.705 -11.228  0.00  0.00     0.019 A 
ATOM     24  C   UNL d   1      -3.271  53.482 -10.680  0.00  0.00     0.116 A 
ATOM     25  N   UNL d   1      -0.920  54.009 -10.750  0.00  0.00    -0.304 N 
ATOM     26  C   UNL d   1       0.098  53.560 -11.488  0.00  0.00     0.123 A 
ATOM     27  HN  UNL d   1      -0.869  54.718 -10.019  1.00  0.00     0.186 HD
ENDBRANCH  15  18
ENDBRANCH   7   9
ENDBRANCH   3   7
BRANCH   4  28
ATOM     28  O   UNL d   1       1.669  53.131 -19.474  0.00  0.00    -0.354 OA
ATOM     29  C   UNL d   1       1.982  53.429 -20.841  0.00  0.00     0.210 C 
ENDBRANCH   4  28
BRANCH   1  30
ATOM     30  N   UNL d   1      -2.497  49.558 -18.261  0.00  0.00    -0.322 N 
ATOM     31  C   UNL d   1      -2.258  48.152 -18.477  0.00  0.00     0.244 C 
ATOM     32  O   UNL d   1      -1.191  47.727 -18.980  0.00  0.00    -0.268 OA
ATOM     33  HN  UNL d   1      -3.391  49.892 -17.901  1.00  0.00     0.169 HD
BRANCH  31  34
ATOM     34  C   UNL d   1      -3.355  47.266 -18.063  0.00  0.00     0.064 C 
ATOM     35  C   UNL d   1      -3.087  46.172 -17.332  0.00  0.00     0.017 C 
ENDBRANCH  31  34
ENDBRANCH   1  30
BRANCH   6  36
ATOM     36  N   UNL d   1      -2.151  50.563 -20.931  0.00  0.00    -0.376 N 
ATOM     37  C   UNL d   1      -1.763  49.656 -21.988  0.00  0.00     0.153 C 
ATOM     38  C   UNL d   1      -2.223  50.188 -23.347  0.00  0.00     0.291 C 
ATOM     39  N   UNL d   1      -2.687  51.533 -23.174  0.00  0.00     0.087 N 
ATOM     40  C   UNL d   1      -2.881  52.275 -24.384  0.00  0.00     0.310 C 
ATOM     41  C   UNL d   1      -3.823  51.658 -22.277  0.00  0.00     0.291 C 
ATOM     42  C   UNL d   1      -3.500  51.148 -20.896  0.00  0.00     0.153 C 
ENDBRANCH   6  36
TORSDOF 7
ENDMDL
