MODEL 1
REMARK VINA RESULT:      -8.7      0.000      0.000
REMARK  9 active torsions:
REMARK  status: ('A' for Active; 'I' for Inactive)
REMARK    1  A    between atoms: O_2  and  C_3 
REMARK    2  A    between atoms: C_4  and  O_5 
REMARK    3  A    between atoms: O_5  and  C_6 
REMARK    4  A    between atoms: C_6  and  C_7 
REMARK    5  A    between atoms: C_10  and  C_11 
REMARK    6  A    between atoms: C_11  and  S_12 
REMARK    7  A    between atoms: S_12  and  C_15 
REMARK    8  A    between atoms: C_32  and  N_33 
REMARK    9  A    between atoms: N_33  and  C_35 
ROOT
ATOM      1  C   UNL d   1      -0.716  49.189 -18.137  0.00  0.00     0.102 A 
ATOM      2  C   UNL d   1      -0.657  48.905 -19.482  0.00  0.00     0.104 A 
ATOM      3  C   UNL d   1       0.015  49.759 -20.369  0.00  0.00     0.070 A 
ATOM      4  C   UNL d   1       0.607  50.894 -19.807  0.00  0.00     0.050 A 
ATOM      5  N   UNL d   1       1.240  51.711 -20.647  0.00  0.00    -0.351 N 
ATOM      6  HN  UNL d   1       1.271  51.482 -21.640  1.00  0.00     0.166 HD
ATOM      7  C   UNL d   1       1.845  52.850 -20.202  0.00  0.00     0.182 A 
ATOM      8  N   UNL d   1       1.792  53.138 -18.868  0.00  0.00    -0.338 N 
ATOM      9  HN  UNL d   1       2.237  53.984 -18.514  1.00  0.00     0.168 HD
ATOM     10  C   UNL d   1       1.156  52.315 -18.023  0.00  0.00     0.119 A 
ATOM     11  C   UNL d   1       0.538  51.162 -18.450  0.00  0.00     0.038 A 
ATOM     12  C   UNL d   1      -0.134  50.308 -17.570  0.00  0.00     0.057 A 
ENDROOT
BRANCH   2  13
ATOM     13  O   UNL d   1      -1.257  47.767 -20.012  0.00  0.00    -0.340 OA
BRANCH  13  14
ATOM     14  C   UNL d   1      -2.610  47.643 -20.280  0.00  0.00     0.262 C 
BRANCH  14  15
ATOM     15  C   UNL d   1      -3.123  48.350 -21.454  0.00  0.00     0.172 A 
ATOM     16  N   UNL d   1      -2.480  48.620 -22.632  0.00  0.00    -0.324 N 
ATOM     17  C   UNL d   1      -3.396  49.298 -23.388  0.00  0.00     0.118 A 
ATOM     18  HN  UNL d   1      -1.526  48.371 -22.889  1.00  0.00     0.169 HD
ATOM     19  N   UNL d   1      -4.544  49.421 -22.675  0.00  0.00    -0.246 N 
ATOM     20  O   UNL d   1      -4.330  48.847 -21.547  0.00  0.00    -0.221 OA
ATOM     21  HN  UNL d   1      -5.404  49.879 -22.974  1.00  0.00     0.196 HD
BRANCH  17  22
ATOM     22  C   UNL d   1      -3.231  49.839 -24.761  0.00  0.00     0.225 C 
BRANCH  22  23
ATOM     23  S   UNL d   1      -3.301  51.637 -24.659  0.00  0.00     0.197 S 
ATOM     24  O   UNL d   1      -4.136  52.062 -25.847  0.00  0.00    -0.221 OA
ATOM     25  O   UNL d   1      -3.983  52.081 -23.411  0.00  0.00    -0.221 OA
BRANCH  23  26
ATOM     26  C   UNL d   1      -1.676  52.200 -24.801  0.00  0.00     0.128 A 
ATOM     27  N   UNL d   1      -1.314  53.031 -25.786  0.00  0.00    -0.357 N 
ATOM     28  C   UNL d   1      -0.056  53.502 -25.943  0.00  0.00     0.089 A 
ATOM     29  HN  UNL d   1      -2.025  53.326 -26.455  1.00  0.00     0.166 HD
ATOM     30  C   UNL d   1       0.907  53.109 -25.045  0.00  0.00     0.017 A 
ATOM     31  C   UNL d   1       0.606  52.262 -24.016  0.00  0.00     0.004 A 
ATOM     32  C   UNL d   1      -0.695  51.812 -23.904  0.00  0.00     0.042 A 
ENDBRANCH  23  26
ENDBRANCH  22  23
ENDBRANCH  17  22
ENDBRANCH  14  15
ENDBRANCH  13  14
ENDBRANCH   2  13
BRANCH   1  33
ATOM     33  O   UNL d   1      -1.395  48.326 -17.263  0.00  0.00    -0.353 OA
ATOM     34  C   UNL d   1      -2.628  48.665 -16.684  0.00  0.00     0.210 C 
ENDBRANCH   1  33
BRANCH  10  35
ATOM     35  N   UNL d   1       1.147  52.681 -16.633  0.00  0.00    -0.342 N 
ATOM     36  HN  UNL d   1       0.354  53.133 -16.178  1.00  0.00     0.167 HD
BRANCH  35  37
ATOM     37  C   UNL d   1       2.374  52.343 -15.941  0.00  0.00     0.035 A 
ATOM     38  C   UNL d   1       2.246  51.530 -14.817  0.00  0.00     0.055 A 
ATOM     39  C   UNL d   1       3.412  51.168 -14.124  0.00  0.00     0.058 A 
ATOM     40 CL   UNL d   1       3.235  50.140 -12.708  0.00  0.00    -0.082 Cl
ATOM     41  C   UNL d   1       4.633  51.610 -14.558  0.00  0.00     0.055 A 
ATOM     42 CL   UNL d   1       6.042  51.108 -13.635  0.00  0.00    -0.083 Cl
ATOM     43  C   UNL d   1       4.777  52.432 -15.690  0.00  0.00     0.028 A 
ATOM     44  C   UNL d   1       3.591  52.778 -16.362  0.00  0.00     0.031 A 
ENDBRANCH  35  37
ENDBRANCH  10  35
TORSDOF 9
ENDMDL
MODEL 2
REMARK VINA RESULT:      -8.7      5.006      9.194
REMARK  9 active torsions:
REMARK  status: ('A' for Active; 'I' for Inactive)
REMARK    1  A    between atoms: O_2  and  C_3 
REMARK    2  A    between atoms: C_4  and  O_5 
REMARK    3  A    between atoms: O_5  and  C_6 
REMARK    4  A    between atoms: C_6  and  C_7 
REMARK    5  A    between atoms: C_10  and  C_11 
REMARK    6  A    between atoms: C_11  and  S_12 
REMARK    7  A    between atoms: S_12  and  C_15 
REMARK    8  A    between atoms: C_32  and  N_33 
REMARK    9  A    between atoms: N_33  and  C_35 
ROOT
ATOM      1  C   UNL d   1      -1.476  49.212 -20.567  0.00  0.00     0.102 A 
ATOM      2  C   UNL d   1      -0.748  49.184 -19.400  0.00  0.00     0.104 A 
ATOM      3  C   UNL d   1       0.147  50.218 -19.085  0.00  0.00     0.070 A 
ATOM      4  C   UNL d   1       0.248  51.254 -20.017  0.00  0.00     0.050 A 
ATOM      5  N   UNL d   1       1.102  52.234 -19.725  0.00  0.00    -0.351 N 
ATOM      6  HN  UNL d   1       1.632  52.193 -18.855  1.00  0.00     0.166 HD
ATOM      7  C   UNL d   1       1.281  53.289 -20.572  0.00  0.00     0.182 A 
ATOM      8  N   UNL d   1       0.561  53.324 -21.732  0.00  0.00    -0.338 N 
ATOM      9  HN  UNL d   1       0.680  54.103 -22.379  1.00  0.00     0.168 HD
ATOM     10  C   UNL d   1      -0.299  52.339 -22.024  0.00  0.00     0.119 A 
ATOM     11  C   UNL d   1      -0.494  51.265 -21.187  0.00  0.00     0.038 A 
ATOM     12  C   UNL d   1      -1.385  50.233 -21.496  0.00  0.00     0.057 A 
ENDROOT
BRANCH   2  13
ATOM     13  O   UNL d   1      -0.870  48.138 -18.491  0.00  0.00    -0.340 OA
BRANCH  13  14
ATOM     14  C   UNL d   1      -1.988  47.904 -17.707  0.00  0.00     0.262 C 
BRANCH  14  15
ATOM     15  C   UNL d   1      -2.488  49.025 -16.911  0.00  0.00     0.172 A 
ATOM     16  N   UNL d   1      -2.127  49.397 -15.645  0.00  0.00    -0.324 N 
ATOM     17  C   UNL d   1      -2.888  50.500 -15.368  0.00  0.00     0.118 A 
ATOM     18  HN  UNL d   1      -1.440  48.950 -15.039  1.00  0.00     0.169 HD
ATOM     19  N   UNL d   1      -3.673  50.767 -16.443  0.00  0.00    -0.246 N 
ATOM     20  O   UNL d   1      -3.400  49.871 -17.321  0.00  0.00    -0.221 OA
ATOM     21  HN  UNL d   1      -4.346  51.527 -16.534  1.00  0.00     0.196 HD
BRANCH  17  22
ATOM     22  C   UNL d   1      -2.906  51.313 -14.127  0.00  0.00     0.225 C 
BRANCH  22  23
ATOM     23  S   UNL d   1      -1.236  51.325 -13.450  0.00  0.00     0.197 S 
ATOM     24  O   UNL d   1      -1.070  49.970 -12.798  0.00  0.00    -0.221 OA
ATOM     25  O   UNL d   1      -0.216  51.466 -14.528  0.00  0.00    -0.221 OA
BRANCH  23  26
ATOM     26  C   UNL d   1      -1.189  52.594 -12.280  0.00  0.00     0.128 A 
ATOM     27  N   UNL d   1      -2.310  53.056 -11.714  0.00  0.00    -0.357 N 
ATOM     28  C   UNL d   1      -2.330  54.047 -10.793  0.00  0.00     0.089 A 
ATOM     29  HN  UNL d   1      -3.198  52.638 -11.990  1.00  0.00     0.166 HD
ATOM     30  C   UNL d   1      -1.136  54.613 -10.415  0.00  0.00     0.017 A 
ATOM     31  C   UNL d   1       0.046  54.189 -10.955  0.00  0.00     0.004 A 
ATOM     32  C   UNL d   1       0.006  53.174 -11.891  0.00  0.00     0.042 A 
ENDBRANCH  23  26
ENDBRANCH  22  23
ENDBRANCH  17  22
ENDBRANCH  14  15
ENDBRANCH  13  14
ENDBRANCH   2  13
BRANCH   1  33
ATOM     33  O   UNL d   1      -2.366  48.169 -20.869  0.00  0.00    -0.353 OA
ATOM     34  C   UNL d   1      -3.750  48.283 -20.659  0.00  0.00     0.210 C 
ENDBRANCH   1  33
BRANCH  10  35
ATOM     35  N   UNL d   1      -1.025  52.448 -23.259  0.00  0.00    -0.342 N 
ATOM     36  HN  UNL d   1      -2.037  52.575 -23.304  1.00  0.00     0.167 HD
BRANCH  35  37
ATOM     37  C   UNL d   1      -0.182  52.363 -24.434  0.00  0.00     0.035 A 
ATOM     38  C   UNL d   1      -0.486  53.233 -25.478  0.00  0.00     0.055 A 
ATOM     39  C   UNL d   1       0.315  53.194 -26.630  0.00  0.00     0.058 A 
ATOM     40 CL   UNL d   1      -0.081  54.299 -27.939  0.00  0.00    -0.082 Cl
ATOM     41  C   UNL d   1       1.363  52.315 -26.706  0.00  0.00     0.055 A 
ATOM     42 CL   UNL d   1       2.316  52.332 -28.182  0.00  0.00    -0.083 Cl
ATOM     43  C   UNL d   1       1.681  51.430 -25.661  0.00  0.00     0.028 A 
ATOM     44  C   UNL d   1       0.860  51.494 -24.520  0.00  0.00     0.031 A 
ENDBRANCH  35  37
ENDBRANCH  10  35
TORSDOF 9
ENDMDL
MODEL 3
REMARK VINA RESULT:      -8.5      5.362     10.472
REMARK  9 active torsions:
REMARK  status: ('A' for Active; 'I' for Inactive)
REMARK    1  A    between atoms: O_2  and  C_3 
REMARK    2  A    between atoms: C_4  and  O_5 
REMARK    3  A    between atoms: O_5  and  C_6 
REMARK    4  A    between atoms: C_6  and  C_7 
REMARK    5  A    between atoms: C_10  and  C_11 
REMARK    6  A    between atoms: C_11  and  S_12 
REMARK    7  A    between atoms: S_12  and  C_15 
REMARK    8  A    between atoms: C_32  and  N_33 
REMARK    9  A    between atoms: N_33  and  C_35 
ROOT
ATOM      1  C   UNL d   1      -0.811  51.277 -21.115  0.00  0.00     0.102 A 
ATOM      2  C   UNL d   1       0.460  51.793 -21.018  0.00  0.00     0.104 A 
ATOM      3  C   UNL d   1       1.035  52.495 -22.088  0.00  0.00     0.070 A 
ATOM      4  C   UNL d   1       0.248  52.630 -23.234  0.00  0.00     0.050 A 
ATOM      5  N   UNL d   1       0.793  53.289 -24.255  0.00  0.00    -0.351 N 
ATOM      6  HN  UNL d   1       1.737  53.663 -24.163  1.00  0.00     0.166 HD
ATOM      7  C   UNL d   1       0.110  53.470 -25.423  0.00  0.00     0.182 A 
ATOM      8  N   UNL d   1      -1.153  52.961 -25.526  0.00  0.00    -0.338 N 
ATOM      9  HN  UNL d   1      -1.680  53.085 -26.390  1.00  0.00     0.168 HD
ATOM     10  C   UNL d   1      -1.701  52.299 -24.498  0.00  0.00     0.119 A 
ATOM     11  C   UNL d   1      -1.031  52.104 -23.313  0.00  0.00     0.038 A 
ATOM     12  C   UNL d   1      -1.600  51.405 -22.243  0.00  0.00     0.057 A 
ENDROOT
BRANCH   2  13
ATOM     13  O   UNL d   1       1.221  51.642 -19.863  0.00  0.00    -0.340 OA
BRANCH  13  14
ATOM     14  C   UNL d   1       1.234  52.539 -18.807  0.00  0.00     0.262 C 
BRANCH  14  15
ATOM     15  C   UNL d   1       1.231  51.977 -17.457  0.00  0.00     0.172 A 
ATOM     16  N   UNL d   1       1.304  52.637 -16.261  0.00  0.00    -0.324 N 
ATOM     17  C   UNL d   1       1.265  51.655 -15.310  0.00  0.00     0.118 A 
ATOM     18  HN  UNL d   1       1.374  53.643 -16.110  1.00  0.00     0.169 HD
ATOM     19  N   UNL d   1       1.170  50.452 -15.931  0.00  0.00    -0.246 N 
ATOM     20  O   UNL d   1       1.154  50.697 -17.191  0.00  0.00    -0.221 OA
ATOM     21  HN  UNL d   1       1.122  49.536 -15.486  1.00  0.00     0.196 HD
BRANCH  17  22
ATOM     22  C   UNL d   1       1.314  51.805 -13.834  0.00  0.00     0.225 C 
BRANCH  22  23
ATOM     23  S   UNL d   1      -0.322  51.419 -13.184  0.00  0.00     0.197 S 
ATOM     24  O   UNL d   1      -1.230  51.417 -14.394  0.00  0.00    -0.221 OA
ATOM     25  O   UNL d   1      -0.351  50.066 -12.561  0.00  0.00    -0.221 OA
BRANCH  23  26
ATOM     26  C   UNL d   1      -0.731  52.695 -12.095  0.00  0.00     0.128 A 
ATOM     27  N   UNL d   1      -2.005  52.954 -11.779  0.00  0.00    -0.357 N 
ATOM     28  C   UNL d   1      -2.380  53.940 -10.932  0.00  0.00     0.089 A 
ATOM     29  HN  UNL d   1      -2.734  52.376 -12.198  1.00  0.00     0.166 HD
ATOM     30  C   UNL d   1      -1.402  54.721 -10.363  0.00  0.00     0.017 A 
ATOM     31  C   UNL d   1      -0.082  54.511 -10.644  0.00  0.00     0.004 A 
ATOM     32  C   UNL d   1       0.243  53.490 -11.516  0.00  0.00     0.042 A 
ENDBRANCH  23  26
ENDBRANCH  22  23
ENDBRANCH  17  22
ENDBRANCH  14  15
ENDBRANCH  13  14
ENDBRANCH   2  13
BRANCH   1  33
ATOM     33  O   UNL d   1      -1.372  50.575 -20.035  0.00  0.00    -0.353 OA
ATOM     34  C   UNL d   1      -2.348  51.143 -19.201  0.00  0.00     0.210 C 
ENDBRANCH   1  33
BRANCH  10  35
ATOM     35  N   UNL d   1      -3.036  51.799 -24.678  0.00  0.00    -0.342 N 
ATOM     36  HN  UNL d   1      -3.866  52.277 -24.326  1.00  0.00     0.167 HD
BRANCH  35  37
ATOM     37  C   UNL d   1      -3.090  50.550 -25.410  0.00  0.00     0.035 A 
ATOM     38  C   UNL d   1      -3.477  50.631 -26.745  0.00  0.00     0.055 A 
ATOM     39  C   UNL d   1      -3.530  49.446 -27.495  0.00  0.00     0.058 A 
ATOM     40 CL   UNL d   1      -4.020  49.565 -29.179  0.00  0.00    -0.082 Cl
ATOM     41  C   UNL d   1      -3.204  48.250 -26.911  0.00  0.00     0.055 A 
ATOM     42 CL   UNL d   1      -3.293  46.815 -27.920  0.00  0.00    -0.083 Cl
ATOM     43  C   UNL d   1      -2.812  48.153 -25.564  0.00  0.00     0.028 A 
ATOM     44  C   UNL d   1      -2.770  49.358 -24.840  0.00  0.00     0.031 A 
ENDBRANCH  35  37
ENDBRANCH  10  35
TORSDOF 9
ENDMDL
MODEL 4
REMARK VINA RESULT:      -8.4      4.703      9.015
REMARK  9 active torsions:
REMARK  status: ('A' for Active; 'I' for Inactive)
REMARK    1  A    between atoms: O_2  and  C_3 
REMARK    2  A    between atoms: C_4  and  O_5 
REMARK    3  A    between atoms: O_5  and  C_6 
REMARK    4  A    between atoms: C_6  and  C_7 
REMARK    5  A    between atoms: C_10  and  C_11 
REMARK    6  A    between atoms: C_11  and  S_12 
REMARK    7  A    between atoms: S_12  and  C_15 
REMARK    8  A    between atoms: C_32  and  N_33 
REMARK    9  A    between atoms: N_33  and  C_35 
ROOT
ATOM      1  C   UNL d   1      -1.112  49.562 -20.258  0.00  0.00     0.102 A 
ATOM      2  C   UNL d   1      -0.328  49.664 -19.132  0.00  0.00     0.104 A 
ATOM      3  C   UNL d   1       0.580  50.723 -18.982  0.00  0.00     0.070 A 
ATOM      4  C   UNL d   1       0.634  51.646 -20.030  0.00  0.00     0.050 A 
ATOM      5  N   UNL d   1       1.501  52.648 -19.895  0.00  0.00    -0.351 N 
ATOM      6  HN  UNL d   1       2.072  52.705 -19.052  1.00  0.00     0.166 HD
ATOM      7  C   UNL d   1       1.636  53.599 -20.864  0.00  0.00     0.182 A 
ATOM      8  N   UNL d   1       0.860  53.504 -21.984  0.00  0.00    -0.338 N 
ATOM      9  HN  UNL d   1       0.946  54.204 -22.721  1.00  0.00     0.168 HD
ATOM     10  C   UNL d   1      -0.012  52.496 -22.119  0.00  0.00     0.119 A 
ATOM     11  C   UNL d   1      -0.164  51.526 -21.156  0.00  0.00     0.038 A 
ATOM     12  C   UNL d   1      -1.068  50.469 -21.300  0.00  0.00     0.057 A 
ENDROOT
BRANCH   2  13
ATOM     13  O   UNL d   1      -0.404  48.729 -18.105  0.00  0.00    -0.340 OA
BRANCH  13  14
ATOM     14  C   UNL d   1      -1.405  48.693 -17.147  0.00  0.00     0.262 C 
BRANCH  14  15
ATOM     15  C   UNL d   1      -1.287  49.627 -16.027  0.00  0.00     0.172 A 
ATOM     16  N   UNL d   1      -0.182  50.314 -15.606  0.00  0.00    -0.324 N 
ATOM     17  C   UNL d   1      -0.605  51.041 -14.527  0.00  0.00     0.118 A 
ATOM     18  HN  UNL d   1       0.755  50.290 -16.007  1.00  0.00     0.169 HD
ATOM     19  N   UNL d   1      -1.923  50.787 -14.322  0.00  0.00    -0.246 N 
ATOM     20  O   UNL d   1      -2.274  49.950 -15.230  0.00  0.00    -0.221 OA
ATOM     21  HN  UNL d   1      -2.516  51.181 -13.592  1.00  0.00     0.196 HD
BRANCH  17  22
ATOM     22  C   UNL d   1       0.184  51.967 -13.677  0.00  0.00     0.225 C 
BRANCH  22  23
ATOM     23  S   UNL d   1       1.726  51.140 -13.244  0.00  0.00     0.197 S 
ATOM     24  O   UNL d   1       1.922  51.430 -11.772  0.00  0.00    -0.221 OA
ATOM     25  O   UNL d   1       1.620  49.666 -13.432  0.00  0.00    -0.221 OA
BRANCH  23  26
ATOM     26  C   UNL d   1       2.962  51.876 -14.198  0.00  0.00     0.128 A 
ATOM     27  N   UNL d   1       4.099  52.311 -13.642  0.00  0.00    -0.357 N 
ATOM     28  C   UNL d   1       5.099  52.894 -14.343  0.00  0.00     0.089 A 
ATOM     29  HN  UNL d   1       4.219  52.198 -12.636  1.00  0.00     0.166 HD
ATOM     30  C   UNL d   1       4.944  53.048 -15.700  0.00  0.00     0.017 A 
ATOM     31  C   UNL d   1       3.808  52.626 -16.330  0.00  0.00     0.004 A 
ATOM     32  C   UNL d   1       2.819  52.039 -15.565  0.00  0.00     0.042 A 
ENDBRANCH  23  26
ENDBRANCH  22  23
ENDBRANCH  17  22
ENDBRANCH  14  15
ENDBRANCH  13  14
ENDBRANCH   2  13
BRANCH   1  33
ATOM     33  O   UNL d   1      -2.015  48.495 -20.394  0.00  0.00    -0.353 OA
ATOM     34  C   UNL d   1      -1.734  47.376 -21.195  0.00  0.00     0.210 C 
ENDBRANCH   1  33
BRANCH  10  35
ATOM     35  N   UNL d   1      -0.798  52.466 -23.322  0.00  0.00    -0.342 N 
ATOM     36  HN  UNL d   1      -1.818  52.495 -23.324  1.00  0.00     0.167 HD
BRANCH  35  37
ATOM     37  C   UNL d   1      -0.002  52.393 -24.530  0.00  0.00     0.035 A 
ATOM     38  C   UNL d   1      -0.388  53.228 -25.575  0.00  0.00     0.055 A 
ATOM     39  C   UNL d   1       0.365  53.200 -26.760  0.00  0.00     0.058 A 
ATOM     40 CL   UNL d   1      -0.133  54.261 -28.071  0.00  0.00    -0.082 Cl
ATOM     41  C   UNL d   1       1.446  52.366 -26.865  0.00  0.00     0.055 A 
ATOM     42 CL   UNL d   1       2.335  52.393 -28.381  0.00  0.00    -0.083 Cl
ATOM     43  C   UNL d   1       1.846  51.516 -25.818  0.00  0.00     0.028 A 
ATOM     44  C   UNL d   1       1.072  51.568 -24.645  0.00  0.00     0.031 A 
ENDBRANCH  35  37
ENDBRANCH  10  35
TORSDOF 9
ENDMDL
MODEL 5
REMARK VINA RESULT:      -8.2      4.768      9.166
REMARK  9 active torsions:
REMARK  status: ('A' for Active; 'I' for Inactive)
REMARK    1  A    between atoms: O_2  and  C_3 
REMARK    2  A    between atoms: C_4  and  O_5 
REMARK    3  A    between atoms: O_5  and  C_6 
REMARK    4  A    between atoms: C_6  and  C_7 
REMARK    5  A    between atoms: C_10  and  C_11 
REMARK    6  A    between atoms: C_11  and  S_12 
REMARK    7  A    between atoms: S_12  and  C_15 
REMARK    8  A    between atoms: C_32  and  N_33 
REMARK    9  A    between atoms: N_33  and  C_35 
ROOT
ATOM      1  C   UNL d   1      -0.368  50.308 -19.643  0.00  0.00     0.102 A 
ATOM      2  C   UNL d   1      -0.990  49.098 -19.438  0.00  0.00     0.104 A 
ATOM      3  C   UNL d   1      -1.781  48.517 -20.440  0.00  0.00     0.070 A 
ATOM      4  C   UNL d   1      -1.895  49.235 -21.633  0.00  0.00     0.050 A 
ATOM      5  N   UNL d   1      -2.653  48.691 -22.584  0.00  0.00    -0.351 N 
ATOM      6  HN  UNL d   1      -3.104  47.793 -22.411  1.00  0.00     0.166 HD
ATOM      7  C   UNL d   1      -2.835  49.315 -23.784  0.00  0.00     0.182 A 
ATOM      8  N   UNL d   1      -2.220  50.516 -23.995  0.00  0.00    -0.338 N 
ATOM      9  HN  UNL d   1      -2.344  51.000 -24.884  1.00  0.00     0.168 HD
ATOM     10  C   UNL d   1      -1.458  51.063 -23.038  0.00  0.00     0.119 A 
ATOM     11  C   UNL d   1      -1.262  50.453 -21.821  0.00  0.00     0.038 A 
ATOM     12  C   UNL d   1      -0.473  51.027 -20.819  0.00  0.00     0.057 A 
ENDROOT
BRANCH   2  13
ATOM     13  O   UNL d   1      -0.857  48.406 -18.239  0.00  0.00    -0.340 OA
BRANCH  13  14
ATOM     14  C   UNL d   1      -1.787  48.426 -17.212  0.00  0.00     0.262 C 
BRANCH  14  15
ATOM     15  C   UNL d   1      -1.540  49.357 -16.110  0.00  0.00     0.172 A 
ATOM     16  N   UNL d   1      -0.416  50.094 -15.855  0.00  0.00    -0.324 N 
ATOM     17  C   UNL d   1      -0.699  50.791 -14.713  0.00  0.00     0.118 A 
ATOM     18  HN  UNL d   1       0.447  50.118 -16.398  1.00  0.00     0.169 HD
ATOM     19  N   UNL d   1      -1.956  50.473 -14.310  0.00  0.00    -0.246 N 
ATOM     20  O   UNL d   1      -2.405  49.627 -15.164  0.00  0.00    -0.221 OA
ATOM     21  HN  UNL d   1      -2.445  50.833 -13.491  1.00  0.00     0.196 HD
BRANCH  17  22
ATOM     22  C   UNL d   1       0.169  51.748 -13.983  0.00  0.00     0.225 C 
BRANCH  22  23
ATOM     23  S   UNL d   1       1.654  50.865 -13.469  0.00  0.00     0.197 S 
ATOM     24  O   UNL d   1       1.760  51.117 -11.981  0.00  0.00    -0.221 OA
ATOM     25  O   UNL d   1       1.518  49.399 -13.698  0.00  0.00    -0.221 OA
BRANCH  23  26
ATOM     26  C   UNL d   1       2.972  51.583 -14.322  0.00  0.00     0.128 A 
ATOM     27  N   UNL d   1       4.187  51.673 -13.770  0.00  0.00    -0.357 N 
ATOM     28  C   UNL d   1       5.253  52.225 -14.394  0.00  0.00     0.089 A 
ATOM     29  HN  UNL d   1       4.318  51.307 -12.827  1.00  0.00     0.166 HD
ATOM     30  C   UNL d   1       5.084  52.720 -15.665  0.00  0.00     0.017 A 
ATOM     31  C   UNL d   1       3.869  52.660 -16.287  0.00  0.00     0.004 A 
ATOM     32  C   UNL d   1       2.815  52.086 -15.602  0.00  0.00     0.042 A 
ENDBRANCH  23  26
ENDBRANCH  22  23
ENDBRANCH  17  22
ENDBRANCH  14  15
ENDBRANCH  13  14
ENDBRANCH   2  13
BRANCH   1  33
ATOM     33  O   UNL d   1       0.419  50.877 -18.629  0.00  0.00    -0.353 OA
ATOM     34  C   UNL d   1       0.893  52.197 -18.703  0.00  0.00     0.210 C 
ENDBRANCH   1  33
BRANCH  10  35
ATOM     35  N   UNL d   1      -0.839  52.325 -23.335  0.00  0.00    -0.342 N 
ATOM     36  HN  UNL d   1      -0.964  53.159 -22.760  1.00  0.00     0.167 HD
BRANCH  35  37
ATOM     37  C   UNL d   1      -0.019  52.299 -24.528  0.00  0.00     0.035 A 
ATOM     38  C   UNL d   1      -0.431  53.113 -25.580  0.00  0.00     0.055 A 
ATOM     39  C   UNL d   1       0.343  53.128 -26.751  0.00  0.00     0.058 A 
ATOM     40 CL   UNL d   1      -0.190  54.162 -28.070  0.00  0.00    -0.082 Cl
ATOM     41  C   UNL d   1       1.471  52.356 -26.838  0.00  0.00     0.055 A 
ATOM     42 CL   UNL d   1       2.383  52.435 -28.337  0.00  0.00    -0.083 Cl
ATOM     43  C   UNL d   1       1.898  51.528 -25.784  0.00  0.00     0.028 A 
ATOM     44  C   UNL d   1       1.102  51.535 -24.625  0.00  0.00     0.031 A 
ENDBRANCH  35  37
ENDBRANCH  10  35
TORSDOF 9
ENDMDL
MODEL 6
REMARK VINA RESULT:      -8.2      3.444      5.239
REMARK  9 active torsions:
REMARK  status: ('A' for Active; 'I' for Inactive)
REMARK    1  A    between atoms: O_2  and  C_3 
REMARK    2  A    between atoms: C_4  and  O_5 
REMARK    3  A    between atoms: O_5  and  C_6 
REMARK    4  A    between atoms: C_6  and  C_7 
REMARK    5  A    between atoms: C_10  and  C_11 
REMARK    6  A    between atoms: C_11  and  S_12 
REMARK    7  A    between atoms: S_12  and  C_15 
REMARK    8  A    between atoms: C_32  and  N_33 
REMARK    9  A    between atoms: N_33  and  C_35 
ROOT
ATOM      1  C   UNL d   1      -4.061  47.357 -22.628  0.00  0.00     0.102 A 
ATOM      2  C   UNL d   1      -5.391  47.473 -22.298  0.00  0.00     0.104 A 
ATOM      3  C   UNL d   1      -5.781  47.937 -21.033  0.00  0.00     0.070 A 
ATOM      4  C   UNL d   1      -4.749  48.265 -20.149  0.00  0.00     0.050 A 
ATOM      5  N   UNL d   1      -5.115  48.698 -18.944  0.00  0.00    -0.351 N 
ATOM      6  HN  UNL d   1      -6.107  48.776 -18.720  1.00  0.00     0.166 HD
ATOM      7  C   UNL d   1      -4.185  49.038 -18.004  0.00  0.00     0.182 A 
ATOM      8  N   UNL d   1      -2.863  48.927 -18.325  0.00  0.00    -0.338 N 
ATOM      9  HN  UNL d   1      -2.152  49.175 -17.638  1.00  0.00     0.168 HD
ATOM     10  C   UNL d   1      -2.495  48.492 -19.538  0.00  0.00     0.119 A 
ATOM     11  C   UNL d   1      -3.415  48.142 -20.500  0.00  0.00     0.038 A 
ATOM     12  C   UNL d   1      -3.032  47.680 -21.763  0.00  0.00     0.057 A 
ENDROOT
BRANCH   2  13
ATOM     13  O   UNL d   1      -6.396  47.138 -23.200  0.00  0.00    -0.340 OA
BRANCH  13  14
ATOM     14  C   UNL d   1      -6.960  48.017 -24.111  0.00  0.00     0.262 C 
BRANCH  14  15
ATOM     15  C   UNL d   1      -6.271  49.290 -24.321  0.00  0.00     0.172 A 
ATOM     16  N   UNL d   1      -5.188  49.549 -25.116  0.00  0.00    -0.324 N 
ATOM     17  C   UNL d   1      -4.940  50.884 -24.956  0.00  0.00     0.118 A 
ATOM     18  HN  UNL d   1      -4.675  48.889 -25.701  1.00  0.00     0.169 HD
ATOM     19  N   UNL d   1      -5.854  51.395 -24.091  0.00  0.00    -0.246 N 
ATOM     20  O   UNL d   1      -6.612  50.417 -23.749  0.00  0.00    -0.221 OA
ATOM     21  HN  UNL d   1      -5.925  52.362 -23.776  1.00  0.00     0.196 HD
BRANCH  17  22
ATOM     22  C   UNL d   1      -3.873  51.702 -25.584  0.00  0.00     0.225 C 
BRANCH  22  23
ATOM     23  S   UNL d   1      -2.359  51.456 -24.638  0.00  0.00     0.197 S 
ATOM     24  O   UNL d   1      -2.542  52.288 -23.388  0.00  0.00    -0.221 OA
ATOM     25  O   UNL d   1      -2.194  50.029 -24.244  0.00  0.00    -0.221 OA
BRANCH  23  26
ATOM     26  C   UNL d   1      -1.068  52.062 -25.611  0.00  0.00     0.128 A 
ATOM     27  N   UNL d   1      -1.235  53.135 -26.393  0.00  0.00    -0.357 N 
ATOM     28  C   UNL d   1      -0.258  53.650 -27.175  0.00  0.00     0.089 A 
ATOM     29  HN  UNL d   1      -2.147  53.590 -26.401  1.00  0.00     0.166 HD
ATOM     30  C   UNL d   1       0.975  53.042 -27.167  0.00  0.00     0.017 A 
ATOM     31  C   UNL d   1       1.212  51.943 -26.392  0.00  0.00     0.004 A 
ATOM     32  C   UNL d   1       0.178  51.459 -25.615  0.00  0.00     0.042 A 
ENDBRANCH  23  26
ENDBRANCH  22  23
ENDBRANCH  17  22
ENDBRANCH  14  15
ENDBRANCH  13  14
ENDBRANCH   2  13
BRANCH   1  33
ATOM     33  O   UNL d   1      -3.687  46.889 -23.898  0.00  0.00    -0.353 OA
ATOM     34  C   UNL d   1      -2.348  46.635 -24.237  0.00  0.00     0.210 C 
ENDBRANCH   1  33
BRANCH  10  35
ATOM     35  N   UNL d   1      -1.086  48.407 -19.805  0.00  0.00    -0.342 N 
ATOM     36  HN  UNL d   1      -0.571  47.527 -19.825  1.00  0.00     0.167 HD
BRANCH  35  37
ATOM     37  C   UNL d   1      -0.466  49.695 -20.045  0.00  0.00     0.035 A 
ATOM     38  C   UNL d   1       0.154  50.295 -18.952  0.00  0.00     0.055 A 
ATOM     39  C   UNL d   1       0.779  51.537 -19.143  0.00  0.00     0.058 A 
ATOM     40 CL   UNL d   1       1.559  52.282 -17.754  0.00  0.00    -0.082 Cl
ATOM     41  C   UNL d   1       0.769  52.127 -20.379  0.00  0.00     0.055 A 
ATOM     42 CL   UNL d   1       1.576  53.680 -20.532  0.00  0.00    -0.083 Cl
ATOM     43  C   UNL d   1       0.145  51.533 -21.491  0.00  0.00     0.028 A 
ATOM     44  C   UNL d   1      -0.472  50.289 -21.267  0.00  0.00     0.031 A 
ENDBRANCH  35  37
ENDBRANCH  10  35
TORSDOF 9
ENDMDL
MODEL 7
REMARK VINA RESULT:      -8.1      5.379      9.854
REMARK  9 active torsions:
REMARK  status: ('A' for Active; 'I' for Inactive)
REMARK    1  A    between atoms: O_2  and  C_3 
REMARK    2  A    between atoms: C_4  and  O_5 
REMARK    3  A    between atoms: O_5  and  C_6 
REMARK    4  A    between atoms: C_6  and  C_7 
REMARK    5  A    between atoms: C_10  and  C_11 
REMARK    6  A    between atoms: C_11  and  S_12 
REMARK    7  A    between atoms: S_12  and  C_15 
REMARK    8  A    between atoms: C_32  and  N_33 
REMARK    9  A    between atoms: N_33  and  C_35 
ROOT
ATOM      1  C   UNL d   1      -1.180  49.543 -20.298  0.00  0.00     0.102 A 
ATOM      2  C   UNL d   1      -0.406  49.622 -19.164  0.00  0.00     0.104 A 
ATOM      3  C   UNL d   1       0.521  50.662 -18.997  0.00  0.00     0.070 A 
ATOM      4  C   UNL d   1       0.603  51.591 -20.038  0.00  0.00     0.050 A 
ATOM      5  N   UNL d   1       1.487  52.576 -19.887  0.00  0.00    -0.351 N 
ATOM      6  HN  UNL d   1       2.051  52.616 -19.038  1.00  0.00     0.166 HD
ATOM      7  C   UNL d   1       1.651  53.530 -20.848  0.00  0.00     0.182 A 
ATOM      8  N   UNL d   1       0.885  53.459 -21.976  0.00  0.00    -0.338 N 
ATOM      9  HN  UNL d   1       0.992  54.161 -22.707  1.00  0.00     0.168 HD
ATOM     10  C   UNL d   1      -0.004  52.468 -22.128  0.00  0.00     0.119 A 
ATOM     11  C   UNL d   1      -0.186  51.495 -21.172  0.00  0.00     0.038 A 
ATOM     12  C   UNL d   1      -1.108  50.456 -21.334  0.00  0.00     0.057 A 
ENDROOT
BRANCH   2  13
ATOM     13  O   UNL d   1      -0.510  48.682 -18.144  0.00  0.00    -0.340 OA
BRANCH  13  14
ATOM     14  C   UNL d   1      -1.183  48.888 -16.951  0.00  0.00     0.262 C 
BRANCH  14  15
ATOM     15  C   UNL d   1      -0.454  49.580 -15.888  0.00  0.00     0.172 A 
ATOM     16  N   UNL d   1      -0.883  50.607 -15.092  0.00  0.00    -0.324 N 
ATOM     17  C   UNL d   1       0.175  50.886 -14.271  0.00  0.00     0.118 A 
ATOM     18  HN  UNL d   1      -1.793  51.065 -15.107  1.00  0.00     0.169 HD
ATOM     19  N   UNL d   1       1.196  50.044 -14.576  0.00  0.00    -0.246 N 
ATOM     20  O   UNL d   1       0.775  49.299 -15.532  0.00  0.00    -0.221 OA
ATOM     21  HN  UNL d   1       2.114  50.012 -14.135  1.00  0.00     0.196 HD
BRANCH  17  22
ATOM     22  C   UNL d   1       0.264  51.917 -13.207  0.00  0.00     0.225 C 
BRANCH  22  23
ATOM     23  S   UNL d   1      -0.336  51.183 -11.675  0.00  0.00     0.197 S 
ATOM     24  O   UNL d   1      -0.441  49.703 -11.967  0.00  0.00    -0.221 OA
ATOM     25  O   UNL d   1       0.635  51.385 -10.562  0.00  0.00    -0.221 OA
BRANCH  23  26
ATOM     26  C   UNL d   1      -1.889  51.874 -11.374  0.00  0.00     0.128 A 
ATOM     27  N   UNL d   1      -2.082  53.197 -11.430  0.00  0.00    -0.357 N 
ATOM     28  C   UNL d   1      -3.276  53.790 -11.203  0.00  0.00     0.089 A 
ATOM     29  HN  UNL d   1      -1.285  53.792 -11.656  1.00  0.00     0.166 HD
ATOM     30  C   UNL d   1      -4.355  52.993 -10.899  0.00  0.00     0.017 A 
ATOM     31  C   UNL d   1      -4.227  51.635 -10.825  0.00  0.00     0.004 A 
ATOM     32  C   UNL d   1      -2.983  51.084 -11.066  0.00  0.00     0.042 A 
ENDBRANCH  23  26
ENDBRANCH  22  23
ENDBRANCH  17  22
ENDBRANCH  14  15
ENDBRANCH  13  14
ENDBRANCH   2  13
BRANCH   1  33
ATOM     33  O   UNL d   1      -2.102  48.494 -20.452  0.00  0.00    -0.353 OA
ATOM     34  C   UNL d   1      -1.878  47.426 -21.335  0.00  0.00     0.210 C 
ENDBRANCH   1  33
BRANCH  10  35
ATOM     35  N   UNL d   1      -0.779  52.462 -23.338  0.00  0.00    -0.342 N 
ATOM     36  HN  UNL d   1      -1.797  52.522 -23.351  1.00  0.00     0.167 HD
BRANCH  35  37
ATOM     37  C   UNL d   1       0.027  52.364 -24.538  0.00  0.00     0.035 A 
ATOM     38  C   UNL d   1      -0.350  53.179 -25.603  0.00  0.00     0.055 A 
ATOM     39  C   UNL d   1       0.412  53.126 -26.780  0.00  0.00     0.058 A 
ATOM     40 CL   UNL d   1      -0.074  54.160 -28.117  0.00  0.00    -0.082 Cl
ATOM     41  C   UNL d   1       1.495  52.289 -26.860  0.00  0.00     0.055 A 
ATOM     42 CL   UNL d   1       2.395  52.286 -28.369  0.00  0.00    -0.083 Cl
ATOM     43  C   UNL d   1       1.885  51.461 -25.793  0.00  0.00     0.028 A 
ATOM     44  C   UNL d   1       1.101  51.537 -24.627  0.00  0.00     0.031 A 
ENDBRANCH  35  37
ENDBRANCH  10  35
TORSDOF 9
ENDMDL
MODEL 8
REMARK VINA RESULT:      -8.0      5.079     10.293
REMARK  9 active torsions:
REMARK  status: ('A' for Active; 'I' for Inactive)
REMARK    1  A    between atoms: O_2  and  C_3 
REMARK    2  A    between atoms: C_4  and  O_5 
REMARK    3  A    between atoms: O_5  and  C_6 
REMARK    4  A    between atoms: C_6  and  C_7 
REMARK    5  A    between atoms: C_10  and  C_11 
REMARK    6  A    between atoms: C_11  and  S_12 
REMARK    7  A    between atoms: S_12  and  C_15 
REMARK    8  A    between atoms: C_32  and  N_33 
REMARK    9  A    between atoms: N_33  and  C_35 
ROOT
ATOM      1  C   UNL d   1      -0.821  51.578 -21.583  0.00  0.00     0.102 A 
ATOM      2  C   UNL d   1       0.506  51.938 -21.584  0.00  0.00     0.104 A 
ATOM      3  C   UNL d   1       1.103  52.482 -22.731  0.00  0.00     0.070 A 
ATOM      4  C   UNL d   1       0.277  52.628 -23.849  0.00  0.00     0.050 A 
ATOM      5  N   UNL d   1       0.842  53.137 -24.943  0.00  0.00    -0.351 N 
ATOM      6  HN  UNL d   1       1.828  53.397 -24.921  1.00  0.00     0.166 HD
ATOM      7  C   UNL d   1       0.125  53.314 -26.090  0.00  0.00     0.182 A 
ATOM      8  N   UNL d   1      -1.194  52.959 -26.096  0.00  0.00    -0.338 N 
ATOM      9  HN  UNL d   1      -1.748  53.082 -26.943  1.00  0.00     0.168 HD
ATOM     10  C   UNL d   1      -1.762  52.448 -24.996  0.00  0.00     0.119 A 
ATOM     11  C   UNL d   1      -1.058  52.259 -23.829  0.00  0.00     0.038 A 
ATOM     12  C   UNL d   1      -1.648  51.718 -22.683  0.00  0.00     0.057 A 
ENDROOT
BRANCH   2  13
ATOM     13  O   UNL d   1       1.303  51.781 -20.455  0.00  0.00    -0.340 OA
BRANCH  13  14
ATOM     14  C   UNL d   1       1.311  52.643 -19.371  0.00  0.00     0.262 C 
BRANCH  14  15
ATOM     15  C   UNL d   1       1.147  52.047 -18.045  0.00  0.00     0.172 A 
ATOM     16  N   UNL d   1       1.250  52.651 -16.822  0.00  0.00    -0.324 N 
ATOM     17  C   UNL d   1       1.010  51.657 -15.914  0.00  0.00     0.118 A 
ATOM     18  HN  UNL d   1       1.461  53.629 -16.629  1.00  0.00     0.169 HD
ATOM     19  N   UNL d   1       0.771  50.502 -16.586  0.00  0.00    -0.246 N 
ATOM     20  O   UNL d   1       0.863  50.786 -17.834  0.00  0.00    -0.221 OA
ATOM     21  HN  UNL d   1       0.561  49.591 -16.180  1.00  0.00     0.196 HD
BRANCH  17  22
ATOM     22  C   UNL d   1       0.997  51.752 -14.433  0.00  0.00     0.225 C 
BRANCH  22  23
ATOM     23  S   UNL d   1       2.475  50.926 -13.814  0.00  0.00     0.197 S 
ATOM     24  O   UNL d   1       2.225  50.737 -12.334  0.00  0.00    -0.221 OA
ATOM     25  O   UNL d   1       2.650  49.587 -14.444  0.00  0.00    -0.221 OA
BRANCH  23  26
ATOM     26  C   UNL d   1       3.794  52.004 -14.094  0.00  0.00     0.128 A 
ATOM     27  N   UNL d   1       4.293  52.759 -13.109  0.00  0.00    -0.357 N 
ATOM     28  C   UNL d   1       5.324  53.619 -13.273  0.00  0.00     0.089 A 
ATOM     29  HN  UNL d   1       3.874  52.682 -12.182  1.00  0.00     0.166 HD
ATOM     30  C   UNL d   1       5.894  53.726 -14.520  0.00  0.00     0.017 A 
ATOM     31  C   UNL d   1       5.432  52.985 -15.570  0.00  0.00     0.004 A 
ATOM     32  C   UNL d   1       4.376  52.123 -15.344  0.00  0.00     0.042 A 
ENDBRANCH  23  26
ENDBRANCH  22  23
ENDBRANCH  17  22
ENDBRANCH  14  15
ENDBRANCH  13  14
ENDBRANCH   2  13
BRANCH   1  33
ATOM     33  O   UNL d   1      -1.404  51.032 -20.428  0.00  0.00    -0.353 OA
ATOM     34  C   UNL d   1      -1.540  49.647 -20.241  0.00  0.00     0.210 C 
ENDBRANCH   1  33
BRANCH  10  35
ATOM     35  N   UNL d   1      -3.155  52.104 -25.076  0.00  0.00    -0.342 N 
ATOM     36  HN  UNL d   1      -3.903  52.725 -24.768  1.00  0.00     0.167 HD
BRANCH  35  37
ATOM     37  C   UNL d   1      -3.393  50.790 -25.639  0.00  0.00     0.035 A 
ATOM     38  C   UNL d   1      -3.527  50.726 -27.023  0.00  0.00     0.055 A 
ATOM     39  C   UNL d   1      -3.745  49.470 -27.611  0.00  0.00     0.058 A 
ATOM     40 CL   UNL d   1      -3.911  49.404 -29.361  0.00  0.00    -0.082 Cl
ATOM     41  C   UNL d   1      -3.820  48.349 -26.827  0.00  0.00     0.055 A 
ATOM     42 CL   UNL d   1      -4.093  46.818 -27.643  0.00  0.00    -0.083 Cl
ATOM     43  C   UNL d   1      -3.688  48.400 -25.428  0.00  0.00     0.028 A 
ATOM     44  C   UNL d   1      -3.470  49.673 -24.869  0.00  0.00     0.031 A 
ENDBRANCH  35  37
ENDBRANCH  10  35
TORSDOF 9
ENDMDL
MODEL 9
REMARK VINA RESULT:      -7.8      3.767      5.266
REMARK  9 active torsions:
REMARK  status: ('A' for Active; 'I' for Inactive)
REMARK    1  A    between atoms: O_2  and  C_3 
REMARK    2  A    between atoms: C_4  and  O_5 
REMARK    3  A    between atoms: O_5  and  C_6 
REMARK    4  A    between atoms: C_6  and  C_7 
REMARK    5  A    between atoms: C_10  and  C_11 
REMARK    6  A    between atoms: C_11  and  S_12 
REMARK    7  A    between atoms: S_12  and  C_15 
REMARK    8  A    between atoms: C_32  and  N_33 
REMARK    9  A    between atoms: N_33  and  C_35 
ROOT
ATOM      1  C   UNL d   1      -3.778  47.863 -20.636  0.00  0.00     0.102 A 
ATOM      2  C   UNL d   1      -4.997  48.068 -20.033  0.00  0.00     0.104 A 
ATOM      3  C   UNL d   1      -5.094  48.776 -18.826  0.00  0.00     0.070 A 
ATOM      4  C   UNL d   1      -3.894  49.248 -18.288  0.00  0.00     0.050 A 
ATOM      5  N   UNL d   1      -3.980  49.914 -17.138  0.00  0.00    -0.351 N 
ATOM      6  HN  UNL d   1      -4.894  50.054 -16.708  1.00  0.00     0.166 HD
ATOM      7  C   UNL d   1      -2.866  50.410 -16.525  0.00  0.00     0.182 A 
ATOM      8  N   UNL d   1      -1.652  50.212 -17.118  0.00  0.00    -0.338 N 
ATOM      9  HN  UNL d   1      -0.807  50.574 -16.676  1.00  0.00     0.168 HD
ATOM     10  C   UNL d   1      -1.566  49.542 -18.275  0.00  0.00     0.119 A 
ATOM     11  C   UNL d   1      -2.675  49.032 -18.910  0.00  0.00     0.038 A 
ATOM     12  C   UNL d   1      -2.584  48.326 -20.113  0.00  0.00     0.057 A 
ENDROOT
BRANCH   2  13
ATOM     13  O   UNL d   1      -6.176  47.586 -20.594  0.00  0.00    -0.340 OA
BRANCH  13  14
ATOM     14  C   UNL d   1      -7.113  48.368 -21.248  0.00  0.00     0.262 C 
BRANCH  14  15
ATOM     15  C   UNL d   1      -6.893  48.619 -22.673  0.00  0.00     0.172 A 
ATOM     16  N   UNL d   1      -6.197  47.858 -23.572  0.00  0.00    -0.324 N 
ATOM     17  C   UNL d   1      -6.293  48.533 -24.758  0.00  0.00     0.118 A 
ATOM     18  HN  UNL d   1      -5.710  46.980 -23.397  1.00  0.00     0.169 HD
ATOM     19  N   UNL d   1      -7.028  49.657 -24.560  0.00  0.00    -0.246 N 
ATOM     20  O   UNL d   1      -7.355  49.660 -23.318  0.00  0.00    -0.221 OA
ATOM     21  HN  UNL d   1      -7.270  50.360 -25.257  1.00  0.00     0.196 HD
BRANCH  17  22
ATOM     22  C   UNL d   1      -5.719  48.160 -26.075  0.00  0.00     0.225 C 
BRANCH  22  23
ATOM     23  S   UNL d   1      -3.925  48.253 -25.941  0.00  0.00     0.197 S 
ATOM     24  O   UNL d   1      -3.525  47.001 -25.191  0.00  0.00    -0.221 OA
ATOM     25  O   UNL d   1      -3.280  48.232 -27.285  0.00  0.00    -0.221 OA
BRANCH  23  26
ATOM     26  C   UNL d   1      -3.573  49.672 -25.024  0.00  0.00     0.128 A 
ATOM     27  N   UNL d   1      -3.255  49.597 -23.726  0.00  0.00    -0.357 N 
ATOM     28  C   UNL d   1      -2.971  50.677 -22.962  0.00  0.00     0.089 A 
ATOM     29  HN  UNL d   1      -3.225  48.677 -23.288  1.00  0.00     0.166 HD
ATOM     30  C   UNL d   1      -3.009  51.920 -23.546  0.00  0.00     0.017 A 
ATOM     31  C   UNL d   1      -3.326  52.068 -24.867  0.00  0.00     0.004 A 
ATOM     32  C   UNL d   1      -3.608  50.931 -25.599  0.00  0.00     0.042 A 
ENDBRANCH  23  26
ENDBRANCH  22  23
ENDBRANCH  17  22
ENDBRANCH  14  15
ENDBRANCH  13  14
ENDBRANCH   2  13
BRANCH   1  33
ATOM     33  O   UNL d   1      -3.698  47.151 -21.843  0.00  0.00    -0.353 OA
ATOM     34  C   UNL d   1      -2.977  45.951 -21.957  0.00  0.00     0.210 C 
ENDBRANCH   1  33
BRANCH  10  35
ATOM     35  N   UNL d   1      -0.255  49.379 -18.842  0.00  0.00    -0.342 N 
ATOM     36  HN  UNL d   1       0.264  48.501 -18.808  1.00  0.00     0.167 HD
BRANCH  35  37
ATOM     37  C   UNL d   1       0.256  50.581 -19.468  0.00  0.00     0.035 A 
ATOM     38  C   UNL d   1       0.118  50.664 -20.851  0.00  0.00     0.055 A 
ATOM     39  C   UNL d   1       0.587  51.818 -21.497  0.00  0.00     0.058 A 
ATOM     40 CL   UNL d   1       0.405  51.910 -23.243  0.00  0.00    -0.082 Cl
ATOM     41  C   UNL d   1       1.163  52.826 -20.768  0.00  0.00     0.055 A 
ATOM     42 CL   UNL d   1       1.721  54.237 -21.654  0.00  0.00    -0.083 Cl
ATOM     43  C   UNL d   1       1.310  52.755 -19.372  0.00  0.00     0.028 A 
ATOM     44  C   UNL d   1       0.829  51.585 -18.754  0.00  0.00     0.031 A 
ENDBRANCH  35  37
ENDBRANCH  10  35
TORSDOF 9
ENDMDL
