MODEL 1
REMARK VINA RESULT:      -9.1      0.000      0.000
REMARK  8 active torsions:
REMARK  status: ('A' for Active; 'I' for Inactive)
REMARK    1  A    between atoms: O_2  and  C_3 
REMARK    2  A    between atoms: C_4  and  O_5 
REMARK    3  A    between atoms: O_5  and  C_6 
REMARK    4  A    between atoms: C_6  and  C_7 
REMARK    5  A    between atoms: N_9  and  C_10 
REMARK    6  A    between atoms: C_10  and  C_11 
REMARK    7  A    between atoms: C_30  and  N_31 
REMARK    8  A    between atoms: N_31  and  C_33 
ROOT
ATOM      1  C   UNL d   1      -0.689  49.332 -18.188  0.00  0.00     0.102 A 
ATOM      2  C   UNL d   1      -0.708  49.037 -19.529  0.00  0.00     0.104 A 
ATOM      3  C   UNL d   1      -0.029  49.903 -20.373  0.00  0.00     0.070 A 
ATOM      4  C   UNL d   1       0.620  50.991 -19.866  0.00  0.00     0.050 A 
ATOM      5  N   UNL d   1       1.271  51.822 -20.678  0.00  0.00    -0.351 N 
ATOM      6  HN  UNL d   1       1.268  51.620 -21.678  1.00  0.00     0.166 HD
ATOM      7  C   UNL d   1       1.931  52.912 -20.251  0.00  0.00     0.182 A 
ATOM      8  N   UNL d   1       1.919  53.156 -18.926  0.00  0.00    -0.338 N 
ATOM      9  HN  UNL d   1       2.414  53.979 -18.584  1.00  0.00     0.168 HD
ATOM     10  C   UNL d   1       1.290  52.378 -18.030  0.00  0.00     0.119 A 
ATOM     11  C   UNL d   1       0.626  51.269 -18.513  0.00  0.00     0.038 A 
ATOM     12  C   UNL d   1      -0.039  50.428 -17.654  0.00  0.00     0.057 A 
ENDROOT
BRANCH   2  13
ATOM     13  O   UNL d   1      -1.384  47.925 -19.944  0.00  0.00    -0.346 OA
BRANCH  13  14
ATOM     14  C   UNL d   1      -1.537  47.473 -21.258  0.00  0.00     0.202 C 
BRANCH  14  15
ATOM     15  C   UNL d   1      -2.835  47.969 -21.887  0.00  0.00     0.137 C 
ATOM     16  C   UNL d   1      -2.452  49.078 -22.827  0.00  0.00     0.300 C 
ATOM     17  N   UNL d   1      -3.586  49.628 -23.502  0.00  0.00     0.102 N 
ATOM     18  C   UNL d   1      -4.842  49.481 -22.840  0.00  0.00     0.375 C 
ATOM     19  C   UNL d   1      -4.721  49.420 -21.360  0.00  0.00     0.246 C 
ATOM     20  O   UNL d   1      -5.505  50.050 -20.584  0.00  0.00    -0.272 OA
ATOM     21  N   UNL d   1      -3.657  48.604 -20.846  0.00  0.00    -0.351 N 
ATOM     22  HN  UNL d   1      -3.487  48.476 -19.849  1.00  0.00     0.163 HD
BRANCH  17  23
ATOM     23  C   UNL d   1      -3.331  51.017 -23.849  0.00  0.00     0.300 C 
BRANCH  23  24
ATOM     24  C   UNL d   1      -1.929  51.355 -23.529  0.00  0.00     0.006 C 
ATOM     25  C   UNL d   1      -0.984  51.629 -24.412  0.00  0.00    -0.082 C 
ATOM     26  C   UNL d   1      -1.290  51.666 -25.869  0.00  0.00     0.034 C 
ATOM     27  C   UNL d   1       0.386  51.894 -23.871  0.00  0.00     0.034 C 
ATOM     28  C   UNL d   1      -0.765  52.969 -26.426  0.00  0.00     0.004 C 
ATOM     29  C   UNL d   1       0.133  53.711 -25.478  0.00  0.00     0.001 C 
ATOM     30  C   UNL d   1       1.144  52.814 -24.804  0.00  0.00     0.004 C 
ENDBRANCH  23  24
ENDBRANCH  17  23
ENDBRANCH  14  15
ENDBRANCH  13  14
ENDBRANCH   2  13
BRANCH   1  31
ATOM     31  O   UNL d   1      -1.361  48.487 -17.292  0.00  0.00    -0.353 OA
ATOM     32  C   UNL d   1      -2.638  48.764 -16.808  0.00  0.00     0.210 C 
ENDBRANCH   1  31
BRANCH  10  33
ATOM     33  N   UNL d   1       1.281  52.641 -16.632  0.00  0.00    -0.342 N 
ATOM     34  HN  UNL d   1       0.468  53.062 -16.182  1.00  0.00     0.167 HD
BRANCH  33  35
ATOM     35  C   UNL d   1       2.441  52.300 -15.879  0.00  0.00     0.035 A 
ATOM     36  C   UNL d   1       2.384  51.492 -14.776  0.00  0.00     0.055 A 
ATOM     37  C   UNL d   1       3.496  51.140 -14.022  0.00  0.00     0.058 A 
ATOM     38 CL   UNL d   1       3.384  50.104 -12.615  0.00  0.00    -0.082 Cl
ATOM     39  C   UNL d   1       4.713  51.646 -14.427  0.00  0.00     0.055 A 
ATOM     40 CL   UNL d   1       6.172  51.255 -13.534  0.00  0.00    -0.083 Cl
ATOM     41  C   UNL d   1       4.834  52.469 -15.536  0.00  0.00     0.028 A 
ATOM     42  C   UNL d   1       3.682  52.788 -16.256  0.00  0.00     0.031 A 
ENDBRANCH  33  35
ENDBRANCH  10  33
TORSDOF 8
ENDMDL
MODEL 2
REMARK VINA RESULT:      -8.7      4.733      9.737
REMARK  8 active torsions:
REMARK  status: ('A' for Active; 'I' for Inactive)
REMARK    1  A    between atoms: O_2  and  C_3 
REMARK    2  A    between atoms: C_4  and  O_5 
REMARK    3  A    between atoms: O_5  and  C_6 
REMARK    4  A    between atoms: C_6  and  C_7 
REMARK    5  A    between atoms: N_9  and  C_10 
REMARK    6  A    between atoms: C_10  and  C_11 
REMARK    7  A    between atoms: C_30  and  N_31 
REMARK    8  A    between atoms: N_31  and  C_33 
ROOT
ATOM      1  C   UNL d   1      -1.140  51.514 -20.084  0.00  0.00     0.102 A 
ATOM      2  C   UNL d   1      -1.496  50.343 -19.462  0.00  0.00     0.104 A 
ATOM      3  C   UNL d   1      -2.113  49.378 -20.244  0.00  0.00     0.070 A 
ATOM      4  C   UNL d   1      -2.343  49.608 -21.569  0.00  0.00     0.050 A 
ATOM      5  N   UNL d   1      -2.935  48.680 -22.318  0.00  0.00    -0.351 N 
ATOM      6  HN  UNL d   1      -3.208  47.804 -21.874  1.00  0.00     0.166 HD
ATOM      7  C   UNL d   1      -3.193  48.838 -23.629  0.00  0.00     0.182 A 
ATOM      8  N   UNL d   1      -2.824  50.005 -24.190  0.00  0.00    -0.338 N 
ATOM      9  HN  UNL d   1      -3.012  50.142 -25.183  1.00  0.00     0.168 HD
ATOM     10  C   UNL d   1      -2.222  51.000 -23.517  0.00  0.00     0.119 A 
ATOM     11  C   UNL d   1      -1.976  50.795 -22.175  0.00  0.00     0.038 A 
ATOM     12  C   UNL d   1      -1.363  51.768 -21.424  0.00  0.00     0.057 A 
ENDROOT
BRANCH   2  13
ATOM     13  O   UNL d   1      -1.226  50.202 -18.130  0.00  0.00    -0.346 OA
BRANCH  13  14
ATOM     14  C   UNL d   1      -0.456  49.201 -17.528  0.00  0.00     0.202 C 
BRANCH  14  15
ATOM     15  C   UNL d   1       0.536  49.771 -16.520  0.00  0.00     0.137 C 
ATOM     16  C   UNL d   1      -0.284  50.353 -15.402  0.00  0.00     0.300 C 
ATOM     17  N   UNL d   1       0.531  50.913 -14.370  0.00  0.00     0.102 N 
ATOM     18  C   UNL d   1       1.838  51.333 -14.762  0.00  0.00     0.375 C 
ATOM     19  C   UNL d   1       1.917  51.753 -16.185  0.00  0.00     0.246 C 
ATOM     20  O   UNL d   1       2.548  52.790 -16.558  0.00  0.00    -0.272 OA
ATOM     21  N   UNL d   1       1.233  50.914 -17.130  0.00  0.00    -0.351 N 
ATOM     22  HN  UNL d   1       1.229  51.095 -18.134  1.00  0.00     0.163 HD
BRANCH  17  23
ATOM     23  C   UNL d   1      -0.187  51.982 -13.697  0.00  0.00     0.300 C 
BRANCH  23  24
ATOM     24  C   UNL d   1      -1.551  51.524 -13.360  0.00  0.00     0.006 C 
ATOM     25  C   UNL d   1      -2.192  51.783 -12.233  0.00  0.00    -0.082 C 
ATOM     26  C   UNL d   1      -1.574  52.641 -11.185  0.00  0.00     0.034 C 
ATOM     27  C   UNL d   1      -3.551  51.174 -12.077  0.00  0.00     0.034 C 
ATOM     28  C   UNL d   1      -2.572  53.711 -10.805  0.00  0.00     0.004 C 
ATOM     29  C   UNL d   1      -3.952  53.465 -11.343  0.00  0.00     0.001 C 
ATOM     30  C   UNL d   1      -4.404  52.035 -11.169  0.00  0.00     0.004 C 
ENDBRANCH  23  24
ENDBRANCH  17  23
ENDBRANCH  14  15
ENDBRANCH  13  14
ENDBRANCH   2  13
BRANCH   1  31
ATOM     31  O   UNL d   1      -0.512  52.522 -19.337  0.00  0.00    -0.353 OA
ATOM     32  C   UNL d   1       0.617  53.203 -19.788  0.00  0.00     0.210 C 
ENDBRANCH   1  31
BRANCH  10  33
ATOM     33  N   UNL d   1      -1.834  52.230 -24.117  0.00  0.00    -0.342 N 
ATOM     34  HN  UNL d   1      -2.361  53.087 -23.946  1.00  0.00     0.167 HD
BRANCH  33  35
ATOM     35  C   UNL d   1      -0.688  52.230 -24.962  0.00  0.00     0.035 A 
ATOM     36  C   UNL d   1      -0.635  52.957 -26.121  0.00  0.00     0.055 A 
ATOM     37  C   UNL d   1       0.467  52.978 -26.966  0.00  0.00     0.058 A 
ATOM     38 CL   UNL d   1       0.497  53.920 -28.441  0.00  0.00    -0.082 Cl
ATOM     39  C   UNL d   1       1.555  52.217 -26.596  0.00  0.00     0.055 A 
ATOM     40 CL   UNL d   1       2.990  52.183 -27.604  0.00  0.00    -0.083 Cl
ATOM     41  C   UNL d   1       1.561  51.461 -25.434  0.00  0.00     0.028 A 
ATOM     42  C   UNL d   1       0.426  51.478 -24.623  0.00  0.00     0.031 A 
ENDBRANCH  33  35
ENDBRANCH  10  33
TORSDOF 8
ENDMDL
MODEL 3
REMARK VINA RESULT:      -8.6      3.313      5.393
REMARK  8 active torsions:
REMARK  status: ('A' for Active; 'I' for Inactive)
REMARK    1  A    between atoms: O_2  and  C_3 
REMARK    2  A    between atoms: C_4  and  O_5 
REMARK    3  A    between atoms: O_5  and  C_6 
REMARK    4  A    between atoms: C_6  and  C_7 
REMARK    5  A    between atoms: N_9  and  C_10 
REMARK    6  A    between atoms: C_10  and  C_11 
REMARK    7  A    between atoms: C_30  and  N_31 
REMARK    8  A    between atoms: N_31  and  C_33 
ROOT
ATOM      1  C   UNL d   1      -0.425  51.203 -19.786  0.00  0.00     0.102 A 
ATOM      2  C   UNL d   1       0.426  52.068 -20.430  0.00  0.00     0.104 A 
ATOM      3  C   UNL d   1       1.453  52.615 -19.676  0.00  0.00     0.070 A 
ATOM      4  C   UNL d   1       1.588  52.292 -18.357  0.00  0.00     0.050 A 
ATOM      5  N   UNL d   1       2.576  52.818 -17.635  0.00  0.00    -0.351 N 
ATOM      6  HN  UNL d   1       3.219  53.463 -18.094  1.00  0.00     0.166 HD
ATOM      7  C   UNL d   1       2.769  52.546 -16.332  0.00  0.00     0.182 A 
ATOM      8  N   UNL d   1       1.906  51.692 -15.750  0.00  0.00    -0.338 N 
ATOM      9  HN  UNL d   1       2.038  51.474 -14.762  1.00  0.00     0.168 HD
ATOM     10  C   UNL d   1       0.881  51.112 -16.395  0.00  0.00     0.119 A 
ATOM     11  C   UNL d   1       0.719  51.420 -17.730  0.00  0.00     0.038 A 
ATOM     12  C   UNL d   1      -0.307  50.863 -18.453  0.00  0.00     0.057 A 
ENDROOT
BRANCH   2  13
ATOM     13  O   UNL d   1       0.213  52.333 -21.753  0.00  0.00    -0.346 OA
BRANCH  13  14
ATOM     14  C   UNL d   1       1.162  52.743 -22.694  0.00  0.00     0.202 C 
BRANCH  14  15
ATOM     15  C   UNL d   1       0.522  53.121 -24.025  0.00  0.00     0.137 C 
ATOM     16  C   UNL d   1      -0.620  52.164 -24.231  0.00  0.00     0.300 C 
ATOM     17  N   UNL d   1      -1.324  52.420 -25.449  0.00  0.00     0.102 N 
ATOM     18  C   UNL d   1      -0.583  53.079 -26.475  0.00  0.00     0.375 C 
ATOM     19  C   UNL d   1       0.875  52.802 -26.417  0.00  0.00     0.246 C 
ATOM     20  O   UNL d   1       1.565  52.547 -27.452  0.00  0.00    -0.272 OA
ATOM     21  N   UNL d   1       1.472  52.835 -25.111  0.00  0.00    -0.351 N 
ATOM     22  HN  UNL d   1       2.467  52.673 -24.950  1.00  0.00     0.163 HD
BRANCH  17  23
ATOM     23  C   UNL d   1      -1.927  51.191 -25.940  0.00  0.00     0.300 C 
BRANCH  23  24
ATOM     24  C   UNL d   1      -2.095  50.243 -24.819  0.00  0.00     0.006 C 
ATOM     25  C   UNL d   1      -2.762  49.102 -24.871  0.00  0.00    -0.082 C 
ATOM     26  C   UNL d   1      -3.386  48.641 -26.142  0.00  0.00     0.034 C 
ATOM     27  C   UNL d   1      -2.852  48.317 -23.600  0.00  0.00     0.034 C 
ATOM     28  C   UNL d   1      -2.947  47.216 -26.391  0.00  0.00     0.004 C 
ATOM     29  C   UNL d   1      -2.273  46.579 -25.210  0.00  0.00     0.001 C 
ATOM     30  C   UNL d   1      -2.994  46.842 -23.909  0.00  0.00     0.004 C 
ENDBRANCH  23  24
ENDBRANCH  17  23
ENDBRANCH  14  15
ENDBRANCH  13  14
ENDBRANCH   2  13
BRANCH   1  31
ATOM     31  O   UNL d   1      -1.481  50.623 -20.505  0.00  0.00    -0.353 OA
ATOM     32  C   UNL d   1      -2.787  51.109 -20.452  0.00  0.00     0.210 C 
ENDBRANCH   1  31
BRANCH  10  33
ATOM     33  N   UNL d   1      -0.028  50.210 -15.773  0.00  0.00    -0.342 N 
ATOM     34  HN  UNL d   1       0.021  49.207 -15.953  1.00  0.00     0.167 HD
BRANCH  33  35
ATOM     35  C   UNL d   1      -1.008  50.750 -14.892  0.00  0.00     0.035 A 
ATOM     36  C   UNL d   1      -0.670  51.412 -13.742  0.00  0.00     0.055 A 
ATOM     37  C   UNL d   1      -1.601  51.950 -12.863  0.00  0.00     0.058 A 
ATOM     38 CL   UNL d   1      -1.131  52.790 -11.400  0.00  0.00    -0.082 Cl
ATOM     39  C   UNL d   1      -2.931  51.796 -13.188  0.00  0.00     0.055 A 
ATOM     40 CL   UNL d   1      -4.177  52.444 -12.135  0.00  0.00    -0.083 Cl
ATOM     41  C   UNL d   1      -3.335  51.136 -14.339  0.00  0.00     0.028 A 
ATOM     42  C   UNL d   1      -2.355  50.617 -15.185  0.00  0.00     0.031 A 
ENDBRANCH  33  35
ENDBRANCH  10  33
TORSDOF 8
ENDMDL
MODEL 4
REMARK VINA RESULT:      -8.4      3.864      8.179
REMARK  8 active torsions:
REMARK  status: ('A' for Active; 'I' for Inactive)
REMARK    1  A    between atoms: O_2  and  C_3 
REMARK    2  A    between atoms: C_4  and  O_5 
REMARK    3  A    between atoms: O_5  and  C_6 
REMARK    4  A    between atoms: C_6  and  C_7 
REMARK    5  A    between atoms: N_9  and  C_10 
REMARK    6  A    between atoms: C_10  and  C_11 
REMARK    7  A    between atoms: C_30  and  N_31 
REMARK    8  A    between atoms: N_31  and  C_33 
ROOT
ATOM      1  C   UNL d   1       0.378  50.511 -19.725  0.00  0.00     0.102 A 
ATOM      2  C   UNL d   1       0.982  51.364 -18.835  0.00  0.00     0.104 A 
ATOM      3  C   UNL d   1       1.415  52.585 -19.330  0.00  0.00     0.070 A 
ATOM      4  C   UNL d   1       1.235  52.898 -20.647  0.00  0.00     0.050 A 
ATOM      5  N   UNL d   1       1.651  54.071 -21.120  0.00  0.00    -0.351 N 
ATOM      6  HN  UNL d   1       2.103  54.719 -20.475  1.00  0.00     0.166 HD
ATOM      7  C   UNL d   1       1.508  54.446 -22.404  0.00  0.00     0.182 A 
ATOM      8  N   UNL d   1       0.910  53.572 -23.234  0.00  0.00    -0.338 N 
ATOM      9  HN  UNL d   1       0.793  53.839 -24.211  1.00  0.00     0.168 HD
ATOM     10  C   UNL d   1       0.457  52.366 -22.850  0.00  0.00     0.119 A 
ATOM     11  C   UNL d   1       0.625  52.023 -21.524  0.00  0.00     0.038 A 
ATOM     12  C   UNL d   1       0.186  50.807 -21.060  0.00  0.00     0.057 A 
ENDROOT
BRANCH   2  13
ATOM     13  O   UNL d   1       1.119  50.966 -17.535  0.00  0.00    -0.346 OA
BRANCH  13  14
ATOM     14  C   UNL d   1       1.345  51.782 -16.423  0.00  0.00     0.202 C 
BRANCH  14  15
ATOM     15  C   UNL d   1       0.743  51.195 -15.151  0.00  0.00     0.137 C 
ATOM     16  C   UNL d   1      -0.524  50.498 -15.565  0.00  0.00     0.300 C 
ATOM     17  N   UNL d   1      -1.188  49.884 -14.459  0.00  0.00     0.102 N 
ATOM     18  C   UNL d   1      -0.918  50.446 -13.175  0.00  0.00     0.375 C 
ATOM     19  C   UNL d   1      -0.582  51.892 -13.226  0.00  0.00     0.246 C 
ATOM     20  O   UNL d   1      -1.054  52.734 -12.400  0.00  0.00    -0.272 OA
ATOM     21  N   UNL d   1       0.315  52.295 -14.273  0.00  0.00    -0.351 N 
ATOM     22  HN  UNL d   1       0.627  53.258 -14.398  1.00  0.00     0.163 HD
BRANCH  17  23
ATOM     23  C   UNL d   1      -2.618  49.815 -14.715  0.00  0.00     0.300 C 
BRANCH  23  24
ATOM     24  C   UNL d   1      -2.905  50.369 -16.054  0.00  0.00     0.006 C 
ATOM     25  C   UNL d   1      -3.086  49.661 -17.156  0.00  0.00    -0.082 C 
ATOM     26  C   UNL d   1      -3.060  48.172 -17.118  0.00  0.00     0.034 C 
ATOM     27  C   UNL d   1      -3.314  50.429 -18.420  0.00  0.00     0.034 C 
ATOM     28  C   UNL d   1      -4.306  47.663 -17.806  0.00  0.00     0.004 C 
ATOM     29  C   UNL d   1      -5.053  48.724 -18.561  0.00  0.00     0.001 C 
ATOM     30  C   UNL d   1      -4.146  49.609 -19.384  0.00  0.00     0.004 C 
ENDBRANCH  23  24
ENDBRANCH  17  23
ENDBRANCH  14  15
ENDBRANCH  13  14
ENDBRANCH   2  13
BRANCH   1  31
ATOM     31  O   UNL d   1      -0.078  49.263 -19.273  0.00  0.00    -0.353 OA
ATOM     32  C   UNL d   1      -0.565  48.281 -20.135  0.00  0.00     0.210 C 
ENDBRANCH   1  31
BRANCH  10  33
ATOM     33  N   UNL d   1      -0.175  51.447 -23.733  0.00  0.00    -0.342 N 
ATOM     34  HN  UNL d   1       0.348  50.995 -24.483  1.00  0.00     0.167 HD
BRANCH  33  35
ATOM     35  C   UNL d   1      -1.560  51.178 -23.539  0.00  0.00     0.035 A 
ATOM     36  C   UNL d   1      -2.023  49.930 -23.223  0.00  0.00     0.055 A 
ATOM     37  C   UNL d   1      -3.366  49.635 -23.027  0.00  0.00     0.058 A 
ATOM     38 CL   UNL d   1      -3.923  48.025 -22.624  0.00  0.00    -0.082 Cl
ATOM     39  C   UNL d   1      -4.262  50.674 -23.165  0.00  0.00     0.055 A 
ATOM     40 CL   UNL d   1      -5.979  50.394 -22.935  0.00  0.00    -0.083 Cl
ATOM     41  C   UNL d   1      -3.852  51.960 -23.483  0.00  0.00     0.028 A 
ATOM     42  C   UNL d   1      -2.490  52.197 -23.668  0.00  0.00     0.031 A 
ENDBRANCH  33  35
ENDBRANCH  10  33
TORSDOF 8
ENDMDL
MODEL 5
REMARK VINA RESULT:      -8.4      5.334     10.350
REMARK  8 active torsions:
REMARK  status: ('A' for Active; 'I' for Inactive)
REMARK    1  A    between atoms: O_2  and  C_3 
REMARK    2  A    between atoms: C_4  and  O_5 
REMARK    3  A    between atoms: O_5  and  C_6 
REMARK    4  A    between atoms: C_6  and  C_7 
REMARK    5  A    between atoms: N_9  and  C_10 
REMARK    6  A    between atoms: C_10  and  C_11 
REMARK    7  A    between atoms: C_30  and  N_31 
REMARK    8  A    between atoms: N_31  and  C_33 
ROOT
ATOM      1  C   UNL d   1      -2.297  51.199 -20.806  0.00  0.00     0.102 A 
ATOM      2  C   UNL d   1      -1.083  51.395 -20.195  0.00  0.00     0.104 A 
ATOM      3  C   UNL d   1      -0.013  51.721 -21.015  0.00  0.00     0.070 A 
ATOM      4  C   UNL d   1      -0.187  51.834 -22.364  0.00  0.00     0.050 A 
ATOM      5  N   UNL d   1       0.842  52.147 -23.149  0.00  0.00    -0.351 N 
ATOM      6  HN  UNL d   1       1.752  52.297 -22.714  1.00  0.00     0.166 HD
ATOM      7  C   UNL d   1       0.744  52.275 -24.484  0.00  0.00     0.182 A 
ATOM      8  N   UNL d   1      -0.469  52.072 -25.032  0.00  0.00    -0.338 N 
ATOM      9  HN  UNL d   1      -0.561  52.164 -26.043  1.00  0.00     0.168 HD
ATOM     10  C   UNL d   1      -1.564  51.753 -24.323  0.00  0.00     0.119 A 
ATOM     11  C   UNL d   1      -1.418  51.631 -22.957  0.00  0.00     0.038 A 
ATOM     12  C   UNL d   1      -2.495  51.308 -22.168  0.00  0.00     0.057 A 
ENDROOT
BRANCH   2  13
ATOM     13  O   UNL d   1      -1.003  51.260 -18.838  0.00  0.00    -0.346 OA
BRANCH  13  14
ATOM     14  C   UNL d   1      -0.799  50.078 -18.119  0.00  0.00     0.202 C 
BRANCH  14  15
ATOM     15  C   UNL d   1       0.245  50.250 -17.021  0.00  0.00     0.137 C 
ATOM     16  C   UNL d   1      -0.499  50.707 -15.797  0.00  0.00     0.300 C 
ATOM     17  N   UNL d   1       0.369  50.893 -14.676  0.00  0.00     0.102 N 
ATOM     18  C   UNL d   1       1.737  51.166 -14.981  0.00  0.00     0.375 C 
ATOM     19  C   UNL d   1       1.921  51.860 -16.282  0.00  0.00     0.246 C 
ATOM     20  O   UNL d   1       2.721  52.835 -16.430  0.00  0.00    -0.272 OA
ATOM     21  N   UNL d   1       1.135  51.366 -17.378  0.00  0.00    -0.351 N 
ATOM     22  HN  UNL d   1       1.188  51.754 -18.320  1.00  0.00     0.163 HD
BRANCH  17  23
ATOM     23  C   UNL d   1      -0.184  51.899 -13.783  0.00  0.00     0.300 C 
BRANCH  23  24
ATOM     24  C   UNL d   1      -1.584  51.555 -13.460  0.00  0.00     0.006 C 
ATOM     25  C   UNL d   1      -2.194  51.811 -12.315  0.00  0.00    -0.082 C 
ATOM     26  C   UNL d   1      -1.493  52.547 -11.227  0.00  0.00     0.034 C 
ATOM     27  C   UNL d   1      -3.604  51.327 -12.181  0.00  0.00     0.034 C 
ATOM     28  C   UNL d   1      -2.383  53.685 -10.781  0.00  0.00     0.004 C 
ATOM     29  C   UNL d   1      -3.782  53.602 -11.320  0.00  0.00     0.001 C 
ATOM     30  C   UNL d   1      -4.368  52.213 -11.220  0.00  0.00     0.004 C 
ENDBRANCH  23  24
ENDBRANCH  17  23
ENDBRANCH  14  15
ENDBRANCH  13  14
ENDBRANCH   2  13
BRANCH   1  31
ATOM     31  O   UNL d   1      -3.411  50.867 -20.020  0.00  0.00    -0.353 OA
ATOM     32  C   UNL d   1      -4.473  50.103 -20.502  0.00  0.00     0.210 C 
ENDBRANCH   1  31
BRANCH  10  33
ATOM     33  N   UNL d   1      -2.843  51.539 -24.909  0.00  0.00    -0.342 N 
ATOM     34  HN  UNL d   1      -3.608  52.196 -24.755  1.00  0.00     0.167 HD
BRANCH  33  35
ATOM     35  C   UNL d   1      -3.023  50.380 -25.716  0.00  0.00     0.035 A 
ATOM     36  C   UNL d   1      -3.451  50.453 -27.015  0.00  0.00     0.055 A 
ATOM     37  C   UNL d   1      -3.636  49.343 -27.828  0.00  0.00     0.058 A 
ATOM     38 CL   UNL d   1      -4.185  49.476 -29.485  0.00  0.00    -0.082 Cl
ATOM     39  C   UNL d   1      -3.368  48.109 -27.274  0.00  0.00     0.055 A 
ATOM     40 CL   UNL d   1      -3.574  46.651 -28.227  0.00  0.00    -0.083 Cl
ATOM     41  C   UNL d   1      -2.932  47.971 -25.965  0.00  0.00     0.028 A 
ATOM     42  C   UNL d   1      -2.764  49.122 -25.195  0.00  0.00     0.031 A 
ENDBRANCH  33  35
ENDBRANCH  10  33
TORSDOF 8
ENDMDL
MODEL 6
REMARK VINA RESULT:      -8.3      4.166      9.351
REMARK  8 active torsions:
REMARK  status: ('A' for Active; 'I' for Inactive)
REMARK    1  A    between atoms: O_2  and  C_3 
REMARK    2  A    between atoms: C_4  and  O_5 
REMARK    3  A    between atoms: O_5  and  C_6 
REMARK    4  A    between atoms: C_6  and  C_7 
REMARK    5  A    between atoms: N_9  and  C_10 
REMARK    6  A    between atoms: C_10  and  C_11 
REMARK    7  A    between atoms: C_30  and  N_31 
REMARK    8  A    between atoms: N_31  and  C_33 
ROOT
ATOM      1  C   UNL d   1      -0.779  49.580 -19.978  0.00  0.00     0.102 A 
ATOM      2  C   UNL d   1      -0.126  49.863 -18.803  0.00  0.00     0.104 A 
ATOM      3  C   UNL d   1       0.632  51.024 -18.769  0.00  0.00     0.070 A 
ATOM      4  C   UNL d   1       0.708  51.830 -19.868  0.00  0.00     0.050 A 
ATOM      5  N   UNL d   1       1.436  52.944 -19.832  0.00  0.00    -0.351 N 
ATOM      6  HN  UNL d   1       1.929  53.172 -18.969  1.00  0.00     0.166 HD
ATOM      7  C   UNL d   1       1.557  53.785 -20.875  0.00  0.00     0.182 A 
ATOM      8  N   UNL d   1       0.897  53.460 -22.003  0.00  0.00    -0.338 N 
ATOM      9  HN  UNL d   1       0.978  54.087 -22.804  1.00  0.00     0.168 HD
ATOM     10  C   UNL d   1       0.139  52.359 -22.134  0.00  0.00     0.119 A 
ATOM     11  C   UNL d   1       0.043  51.525 -21.040  0.00  0.00     0.038 A 
ATOM     12  C   UNL d   1      -0.715  50.382 -21.101  0.00  0.00     0.057 A 
ENDROOT
BRANCH   2  13
ATOM     13  O   UNL d   1      -0.261  48.997 -17.755  0.00  0.00    -0.346 OA
BRANCH  13  14
ATOM     14  C   UNL d   1      -1.032  49.182 -16.603  0.00  0.00     0.202 C 
BRANCH  14  15
ATOM     15  C   UNL d   1      -0.172  49.256 -15.346  0.00  0.00     0.137 C 
ATOM     16  C   UNL d   1       0.640  50.516 -15.462  0.00  0.00     0.300 C 
ATOM     17  N   UNL d   1       1.487  50.718 -14.328  0.00  0.00     0.102 N 
ATOM     18  C   UNL d   1       1.853  49.544 -13.603  0.00  0.00     0.375 C 
ATOM     19  C   UNL d   1       1.892  48.321 -14.445  0.00  0.00     0.246 C 
ATOM     20  O   UNL d   1       2.826  47.464 -14.364  0.00  0.00    -0.272 OA
ATOM     21  N   UNL d   1       0.805  48.157 -15.370  0.00  0.00    -0.351 N 
ATOM     22  HN  UNL d   1       0.719  47.350 -15.988  1.00  0.00     0.163 HD
BRANCH  17  23
ATOM     23  C   UNL d   1       2.660  51.485 -14.717  0.00  0.00     0.300 C 
BRANCH  23  24
ATOM     24  C   UNL d   1       3.684  51.390 -13.657  0.00  0.00     0.006 C 
ATOM     25  C   UNL d   1       4.925  51.841 -13.744  0.00  0.00    -0.082 C 
ATOM     26  C   UNL d   1       5.391  52.558 -14.963  0.00  0.00     0.034 C 
ATOM     27  C   UNL d   1       5.815  51.591 -12.567  0.00  0.00     0.034 C 
ATOM     28  C   UNL d   1       6.035  53.854 -14.528  0.00  0.00     0.004 C 
ATOM     29  C   UNL d   1       6.283  53.936 -13.049  0.00  0.00     0.001 C 
ATOM     30  C   UNL d   1       6.876  52.668 -12.481  0.00  0.00     0.004 C 
ENDBRANCH  23  24
ENDBRANCH  17  23
ENDBRANCH  14  15
ENDBRANCH  13  14
ENDBRANCH   2  13
BRANCH   1  31
ATOM     31  O   UNL d   1      -1.559  48.417 -20.064  0.00  0.00    -0.353 OA
ATOM     32  C   UNL d   1      -2.753  48.361 -20.782  0.00  0.00     0.210 C 
ENDBRANCH   1  31
BRANCH  10  33
ATOM     33  N   UNL d   1      -0.556  52.023 -23.330  0.00  0.00    -0.342 N 
ATOM     34  HN  UNL d   1      -1.523  51.699 -23.302  1.00  0.00     0.167 HD
BRANCH  33  35
ATOM     35  C   UNL d   1       0.139  52.152 -24.566  0.00  0.00     0.035 A 
ATOM     36  C   UNL d   1      -0.299  52.977 -25.567  0.00  0.00     0.055 A 
ATOM     37  C   UNL d   1       0.356  53.125 -26.783  0.00  0.00     0.058 A 
ATOM     38 CL   UNL d   1      -0.235  54.191 -28.040  0.00  0.00    -0.082 Cl
ATOM     39  C   UNL d   1       1.507  52.390 -26.968  0.00  0.00     0.055 A 
ATOM     40 CL   UNL d   1       2.400  52.514 -28.473  0.00  0.00    -0.083 Cl
ATOM     41  C   UNL d   1       2.000  51.539 -25.991  0.00  0.00     0.028 A 
ATOM     42  C   UNL d   1       1.300  51.430 -24.789  0.00  0.00     0.031 A 
ENDBRANCH  33  35
ENDBRANCH  10  33
TORSDOF 8
ENDMDL
MODEL 7
REMARK VINA RESULT:      -8.2      1.688      2.037
REMARK  8 active torsions:
REMARK  status: ('A' for Active; 'I' for Inactive)
REMARK    1  A    between atoms: O_2  and  C_3 
REMARK    2  A    between atoms: C_4  and  O_5 
REMARK    3  A    between atoms: O_5  and  C_6 
REMARK    4  A    between atoms: C_6  and  C_7 
REMARK    5  A    between atoms: N_9  and  C_10 
REMARK    6  A    between atoms: C_10  and  C_11 
REMARK    7  A    between atoms: C_30  and  N_31 
REMARK    8  A    between atoms: N_31  and  C_33 
ROOT
ATOM      1  C   UNL d   1      -0.648  49.179 -17.923  0.00  0.00     0.102 A 
ATOM      2  C   UNL d   1      -0.723  48.784 -19.236  0.00  0.00     0.104 A 
ATOM      3  C   UNL d   1      -0.123  49.608 -20.175  0.00  0.00     0.070 A 
ATOM      4  C   UNL d   1       0.507  50.754 -19.785  0.00  0.00     0.050 A 
ATOM      5  N   UNL d   1       1.083  51.544 -20.689  0.00  0.00    -0.351 N 
ATOM      6  HN  UNL d   1       1.038  51.268 -21.670  1.00  0.00     0.166 HD
ATOM      7  C   UNL d   1       1.720  52.687 -20.377  0.00  0.00     0.182 A 
ATOM      8  N   UNL d   1       1.764  53.028 -19.076  0.00  0.00    -0.338 N 
ATOM      9  HN  UNL d   1       2.243  53.892 -18.821  1.00  0.00     0.168 HD
ATOM     10  C   UNL d   1       1.213  52.297 -18.093  0.00  0.00     0.119 A 
ATOM     11  C   UNL d   1       0.570  51.133 -18.458  0.00  0.00     0.038 A 
ATOM     12  C   UNL d   1      -0.016  50.334 -17.506  0.00  0.00     0.057 A 
ENDROOT
BRANCH   2  13
ATOM     13  O   UNL d   1      -1.375  47.620 -19.532  0.00  0.00    -0.346 OA
BRANCH  13  14
ATOM     14  C   UNL d   1      -2.755  47.397 -19.509  0.00  0.00     0.202 C 
BRANCH  14  15
ATOM     15  C   UNL d   1      -3.225  46.595 -20.717  0.00  0.00     0.137 C 
ATOM     16  C   UNL d   1      -2.595  47.236 -21.922  0.00  0.00     0.300 C 
ATOM     17  N   UNL d   1      -2.944  46.564 -23.135  0.00  0.00     0.102 N 
ATOM     18  C   UNL d   1      -4.169  45.832 -23.116  0.00  0.00     0.375 C 
ATOM     19  C   UNL d   1      -5.171  46.390 -22.172  0.00  0.00     0.246 C 
ATOM     20  O   UNL d   1      -6.399  46.514 -22.473  0.00  0.00    -0.272 OA
ATOM     21  N   UNL d   1      -4.674  46.787 -20.885  0.00  0.00    -0.351 N 
ATOM     22  HN  UNL d   1      -5.271  47.170 -20.152  1.00  0.00     0.163 HD
BRANCH  17  23
ATOM     23  C   UNL d   1      -2.906  47.500 -24.248  0.00  0.00     0.300 C 
BRANCH  23  24
ATOM     24  C   UNL d   1      -2.845  48.882 -23.728  0.00  0.00     0.006 C 
ATOM     25  C   UNL d   1      -2.566  49.960 -24.441  0.00  0.00    -0.082 C 
ATOM     26  C   UNL d   1      -2.326  49.862 -25.907  0.00  0.00     0.034 C 
ATOM     27  C   UNL d   1      -2.506  51.259 -23.700  0.00  0.00     0.034 C 
ATOM     28  C   UNL d   1      -3.204  50.882 -26.595  0.00  0.00     0.004 C 
ATOM     29  C   UNL d   1      -3.833  51.868 -25.653  0.00  0.00     0.001 C 
ATOM     30  C   UNL d   1      -2.862  52.402 -24.627  0.00  0.00     0.004 C 
ENDBRANCH  23  24
ENDBRANCH  17  23
ENDBRANCH  14  15
ENDBRANCH  13  14
ENDBRANCH   2  13
BRANCH   1  31
ATOM     31  O   UNL d   1      -1.240  48.379 -16.933  0.00  0.00    -0.353 OA
ATOM     32  C   UNL d   1      -0.750  48.307 -15.630  0.00  0.00     0.210 C 
ENDBRANCH   1  31
BRANCH  10  33
ATOM     33  N   UNL d   1       1.264  52.664 -16.719  0.00  0.00    -0.342 N 
ATOM     34  HN  UNL d   1       0.500  53.181 -16.285  1.00  0.00     0.167 HD
BRANCH  33  35
ATOM     35  C   UNL d   1       2.414  52.288 -15.969  0.00  0.00     0.035 A 
ATOM     36  C   UNL d   1       2.328  51.540 -14.825  0.00  0.00     0.055 A 
ATOM     37  C   UNL d   1       3.430  51.157 -14.072  0.00  0.00     0.058 A 
ATOM     38 CL   UNL d   1       3.280  50.201 -12.613  0.00  0.00    -0.082 Cl
ATOM     39  C   UNL d   1       4.668  51.565 -14.520  0.00  0.00     0.055 A 
ATOM     40 CL   UNL d   1       6.116  51.127 -13.632  0.00  0.00    -0.083 Cl
ATOM     41  C   UNL d   1       4.819  52.323 -15.672  0.00  0.00     0.028 A 
ATOM     42  C   UNL d   1       3.676  52.678 -16.388  0.00  0.00     0.031 A 
ENDBRANCH  33  35
ENDBRANCH  10  33
TORSDOF 8
ENDMDL
MODEL 8
REMARK VINA RESULT:      -8.2      2.690      5.288
REMARK  8 active torsions:
REMARK  status: ('A' for Active; 'I' for Inactive)
REMARK    1  A    between atoms: O_2  and  C_3 
REMARK    2  A    between atoms: C_4  and  O_5 
REMARK    3  A    between atoms: O_5  and  C_6 
REMARK    4  A    between atoms: C_6  and  C_7 
REMARK    5  A    between atoms: N_9  and  C_10 
REMARK    6  A    between atoms: C_10  and  C_11 
REMARK    7  A    between atoms: C_30  and  N_31 
REMARK    8  A    between atoms: N_31  and  C_33 
ROOT
ATOM      1  C   UNL d   1      -0.607  50.129 -20.974  0.00  0.00     0.102 A 
ATOM      2  C   UNL d   1       0.010  51.190 -21.591  0.00  0.00     0.104 A 
ATOM      3  C   UNL d   1       0.753  52.039 -20.785  0.00  0.00     0.070 A 
ATOM      4  C   UNL d   1       0.850  51.808 -19.444  0.00  0.00     0.050 A 
ATOM      5  N   UNL d   1       1.564  52.625 -18.672  0.00  0.00    -0.351 N 
ATOM      6  HN  UNL d   1       2.031  53.418 -19.111  1.00  0.00     0.166 HD
ATOM      7  C   UNL d   1       1.703  52.459 -17.344  0.00  0.00     0.182 A 
ATOM      8  N   UNL d   1       1.077  51.404 -16.790  0.00  0.00    -0.338 N 
ATOM      9  HN  UNL d   1       1.171  51.263 -15.784  1.00  0.00     0.168 HD
ATOM     10  C   UNL d   1       0.335  50.526 -17.485  0.00  0.00     0.119 A 
ATOM     11  C   UNL d   1       0.219  50.735 -18.844  0.00  0.00     0.038 A 
ATOM     12  C   UNL d   1      -0.523  49.877 -19.619  0.00  0.00     0.057 A 
ENDROOT
BRANCH   2  13
ATOM     13  O   UNL d   1      -0.143  51.341 -22.940  0.00  0.00    -0.346 OA
BRANCH  13  14
ATOM     14  C   UNL d   1      -0.884  52.327 -23.599  0.00  0.00     0.202 C 
BRANCH  14  15
ATOM     15  C   UNL d   1      -2.081  51.742 -24.341  0.00  0.00     0.137 C 
ATOM     16  C   UNL d   1      -3.245  51.817 -23.392  0.00  0.00     0.300 C 
ATOM     17  N   UNL d   1      -4.448  51.311 -23.974  0.00  0.00     0.102 N 
ATOM     18  C   UNL d   1      -4.284  50.366 -25.031  0.00  0.00     0.375 C 
ATOM     19  C   UNL d   1      -3.032  49.574 -24.921  0.00  0.00     0.246 C 
ATOM     20  O   UNL d   1      -2.996  48.321 -25.126  0.00  0.00    -0.272 OA
ATOM     21  N   UNL d   1      -1.850  50.307 -24.564  0.00  0.00    -0.351 N 
ATOM     22  HN  UNL d   1      -0.932  49.871 -24.473  1.00  0.00     0.163 HD
BRANCH  17  23
ATOM     23  C   UNL d   1      -5.321  50.791 -22.933  0.00  0.00     0.300 C 
BRANCH  23  24
ATOM     24  C   UNL d   1      -4.551  50.623 -21.683  0.00  0.00     0.006 C 
ATOM     25  C   UNL d   1      -4.991  50.037 -20.582  0.00  0.00    -0.082 C 
ATOM     26  C   UNL d   1      -6.349  49.428 -20.534  0.00  0.00     0.034 C 
ATOM     27  C   UNL d   1      -4.060  50.022 -19.410  0.00  0.00     0.034 C 
ATOM     28  C   UNL d   1      -6.212  48.017 -20.009  0.00  0.00     0.004 C 
ATOM     29  C   UNL d   1      -4.859  47.718 -19.432  0.00  0.00     0.001 C 
ATOM     30  C   UNL d   1      -4.346  48.819 -18.536  0.00  0.00     0.004 C 
ENDBRANCH  23  24
ENDBRANCH  17  23
ENDBRANCH  14  15
ENDBRANCH  13  14
ENDBRANCH   2  13
BRANCH   1  31
ATOM     31  O   UNL d   1      -1.371  49.240 -21.745  0.00  0.00    -0.353 OA
ATOM     32  C   UNL d   1      -1.626  47.927 -21.351  0.00  0.00     0.210 C 
ENDBRANCH   1  31
BRANCH  10  33
ATOM     33  N   UNL d   1      -0.324  49.413 -16.892  0.00  0.00    -0.342 N 
ATOM     34  HN  UNL d   1      -0.191  48.469 -17.255  1.00  0.00     0.167 HD
BRANCH  33  35
ATOM     35  C   UNL d   1      -1.177  49.657 -15.778  0.00  0.00     0.035 A 
ATOM     36  C   UNL d   1      -0.903  49.168 -14.529  0.00  0.00     0.055 A 
ATOM     37  C   UNL d   1      -1.713  49.388 -13.422  0.00  0.00     0.058 A 
ATOM     38 CL   UNL d   1      -1.330  48.746 -11.839  0.00  0.00    -0.082 Cl
ATOM     39  C   UNL d   1      -2.850  50.143 -13.618  0.00  0.00     0.055 A 
ATOM     40 CL   UNL d   1      -3.932  50.471 -12.277  0.00  0.00    -0.083 Cl
ATOM     41  C   UNL d   1      -3.179  50.665 -14.860  0.00  0.00     0.028 A 
ATOM     42  C   UNL d   1      -2.328  50.412 -15.935  0.00  0.00     0.031 A 
ENDBRANCH  33  35
ENDBRANCH  10  33
TORSDOF 8
ENDMDL
MODEL 9
REMARK VINA RESULT:      -8.1      4.892     10.135
REMARK  8 active torsions:
REMARK  status: ('A' for Active; 'I' for Inactive)
REMARK    1  A    between atoms: O_2  and  C_3 
REMARK    2  A    between atoms: C_4  and  O_5 
REMARK    3  A    between atoms: O_5  and  C_6 
REMARK    4  A    between atoms: C_6  and  C_7 
REMARK    5  A    between atoms: N_9  and  C_10 
REMARK    6  A    between atoms: C_10  and  C_11 
REMARK    7  A    between atoms: C_30  and  N_31 
REMARK    8  A    between atoms: N_31  and  C_33 
ROOT
ATOM      1  C   UNL d   1       0.429  50.315 -17.637  0.00  0.00     0.102 A 
ATOM      2  C   UNL d   1       1.235  51.186 -16.945  0.00  0.00     0.104 A 
ATOM      3  C   UNL d   1       1.717  52.284 -17.642  0.00  0.00     0.070 A 
ATOM      4  C   UNL d   1       1.390  52.465 -18.955  0.00  0.00     0.050 A 
ATOM      5  N   UNL d   1       1.854  53.520 -19.622  0.00  0.00    -0.351 N 
ATOM      6  HN  UNL d   1       2.454  54.179 -19.127  1.00  0.00     0.166 HD
ATOM      7  C   UNL d   1       1.574  53.761 -20.915  0.00  0.00     0.182 A 
ATOM      8  N   UNL d   1       0.780  52.875 -21.546  0.00  0.00    -0.338 N 
ATOM      9  HN  UNL d   1       0.558  53.043 -22.528  1.00  0.00     0.168 HD
ATOM     10  C   UNL d   1       0.265  51.783 -20.958  0.00  0.00     0.119 A 
ATOM     11  C   UNL d   1       0.578  51.574 -19.631  0.00  0.00     0.038 A 
ATOM     12  C   UNL d   1       0.087  50.478 -18.965  0.00  0.00     0.057 A 
ENDROOT
BRANCH   2  13
ATOM     13  O   UNL d   1       1.508  50.924 -15.633  0.00  0.00    -0.346 OA
BRANCH  13  14
ATOM     14  C   UNL d   1       2.451  51.564 -14.824  0.00  0.00     0.202 C 
BRANCH  14  15
ATOM     15  C   UNL d   1       2.108  51.448 -13.343  0.00  0.00     0.137 C 
ATOM     16  C   UNL d   1       0.706  51.972 -13.191  0.00  0.00     0.300 C 
ATOM     17  N   UNL d   1       0.248  51.905 -11.839  0.00  0.00     0.102 N 
ATOM     18  C   UNL d   1       1.262  51.909 -10.833  0.00  0.00     0.375 C 
ATOM     19  C   UNL d   1       2.494  52.629 -11.245  0.00  0.00     0.246 C 
ATOM     20  O   UNL d   1       3.112  53.425 -10.471  0.00  0.00    -0.272 OA
ATOM     21  N   UNL d   1       2.957  52.376 -12.581  0.00  0.00    -0.351 N 
ATOM     22  HN  UNL d   1       3.799  52.803 -12.968  1.00  0.00     0.163 HD
BRANCH  17  23
ATOM     23  C   UNL d   1      -0.738  52.946 -11.598  0.00  0.00     0.300 C 
BRANCH  23  24
ATOM     24  C   UNL d   1      -1.897  52.371 -10.885  0.00  0.00     0.006 C 
ATOM     25  C   UNL d   1      -2.962  51.833 -11.457  0.00  0.00    -0.082 C 
ATOM     26  C   UNL d   1      -3.054  51.719 -12.939  0.00  0.00     0.034 C 
ATOM     27  C   UNL d   1      -4.047  51.356 -10.544  0.00  0.00     0.034 C 
ATOM     28  C   UNL d   1      -3.415  50.291 -13.279  0.00  0.00     0.004 C 
ATOM     29  C   UNL d   1      -3.847  49.481 -12.091  0.00  0.00     0.001 C 
ATOM     30  C   UNL d   1      -4.811  50.221 -11.193  0.00  0.00     0.004 C 
ENDBRANCH  23  24
ENDBRANCH  17  23
ENDBRANCH  14  15
ENDBRANCH  13  14
ENDBRANCH   2  13
BRANCH   1  31
ATOM     31  O   UNL d   1      -0.084  49.188 -16.977  0.00  0.00    -0.353 OA
ATOM     32  C   UNL d   1      -1.448  49.001 -16.755  0.00  0.00     0.210 C 
ENDBRANCH   1  31
BRANCH  10  33
ATOM     33  N   UNL d   1      -0.573  50.851 -21.632  0.00  0.00    -0.342 N 
ATOM     34  HN  UNL d   1      -0.794  49.947 -21.215  1.00  0.00     0.167 HD
BRANCH  33  35
ATOM     35  C   UNL d   1      -1.094  51.218 -22.905  0.00  0.00     0.035 A 
ATOM     36  C   UNL d   1      -0.283  51.482 -23.977  0.00  0.00     0.055 A 
ATOM     37  C   UNL d   1      -0.760  51.842 -25.231  0.00  0.00     0.058 A 
ATOM     38 CL   UNL d   1       0.308  52.172 -26.579  0.00  0.00    -0.082 Cl
ATOM     39  C   UNL d   1      -2.127  51.933 -25.379  0.00  0.00     0.055 A 
ATOM     40 CL   UNL d   1      -2.818  52.382 -26.928  0.00  0.00    -0.083 Cl
ATOM     41  C   UNL d   1      -2.998  51.678 -24.331  0.00  0.00     0.028 A 
ATOM     42  C   UNL d   1      -2.463  51.320 -23.094  0.00  0.00     0.031 A 
ENDBRANCH  33  35
ENDBRANCH  10  33
TORSDOF 8
ENDMDL
