MODEL 1
REMARK VINA RESULT:      -7.7      0.000      0.000
REMARK  9 active torsions:
REMARK  status: ('A' for Active; 'I' for Inactive)
REMARK    1  A    between atoms: C_2  and  C_3 
REMARK       I    between atoms: C_3  and  N_5 
REMARK    2  A    between atoms: N_5  and  C_7 
REMARK    3  A    between atoms: C_8  and  O_9 
REMARK    4  A    between atoms: O_9  and  C_10 
REMARK    5  A    between atoms: C_10  and  C_11 
REMARK    6  A    between atoms: C_11  and  C_12 
REMARK    7  A    between atoms: C_12  and  N_13 
REMARK    8  A    between atoms: C_26  and  N_27 
REMARK    9  A    between atoms: N_27  and  C_29 
ROOT
ATOM      1  C   UNL d   1       0.232  50.100 -17.892  0.00  0.00     0.069 A 
ATOM      2  C   UNL d   1       0.938  51.048 -17.184  0.00  0.00     0.097 A 
ATOM      3  C   UNL d   1       1.386  52.186 -17.813  0.00  0.00     0.069 A 
ATOM      4  C   UNL d   1       1.144  52.393 -19.138  0.00  0.00     0.049 A 
ATOM      5  N   UNL d   1       1.609  53.523 -19.693  0.00  0.00    -0.351 N 
ATOM      6  HN  UNL d   1       2.129  54.207 -19.144  1.00  0.00     0.166 HD
ATOM      7  C   UNL d   1       1.366  53.719 -21.000  0.00  0.00     0.182 A 
ATOM      8  N   UNL d   1       0.688  52.848 -21.763  0.00  0.00    -0.338 N 
ATOM      9  HN  UNL d   1       0.525  53.037 -22.753  1.00  0.00     0.168 HD
ATOM     10  C   UNL d   1       0.230  51.724 -21.193  0.00  0.00     0.119 A 
ATOM     11  C   UNL d   1       0.434  51.436 -19.851  0.00  0.00     0.037 A 
ATOM     12  C   UNL d   1      -0.034  50.283 -19.255  0.00  0.00     0.050 A 
ENDROOT
BRANCH   2  13
ATOM     13  O   UNL d   1       1.234  50.917 -15.823  0.00  0.00    -0.349 OA
BRANCH  13  14
ATOM     14  C   UNL d   1       0.617  51.746 -14.849  0.00  0.00     0.177 C 
BRANCH  14  15
ATOM     15  C   UNL d   1      -0.160  50.887 -13.894  0.00  0.00     0.057 C 
BRANCH  15  16
ATOM     16  C   UNL d   1      -1.520  51.504 -13.677  0.00  0.00     0.274 C 
BRANCH  16  17
ATOM     17  N   UNL d   1      -1.914  51.563 -12.294  0.00  0.00     0.092 N 
ATOM     18  C   UNL d   1      -1.502  52.792 -11.651  0.00  0.00     0.298 C 
ATOM     19  C   UNL d   1      -2.555  53.224 -10.623  0.00  0.00     0.198 C 
ATOM     20  O   UNL d   1      -3.775  53.494 -11.215  0.00  0.00    -0.388 OA
ATOM     21  C   UNL d   1      -4.008  52.716 -12.356  0.00  0.00     0.198 C 
ATOM     22  C   UNL d   1      -3.321  51.396 -12.127  0.00  0.00     0.298 C 
ENDBRANCH  16  17
ENDBRANCH  15  16
ENDBRANCH  14  15
ENDBRANCH  13  14
ENDBRANCH   2  13
BRANCH   1  23
ATOM     23  N   UNL d   1      -0.213  48.939 -17.195  0.00  0.00    -0.321 N 
ATOM     24  C   UNL d   1      -1.485  48.801 -16.588  0.00  0.00     0.245 C 
ATOM     25  O   UNL d   1      -2.307  49.752 -16.664  0.00  0.00    -0.268 OA
ATOM     26  HN  UNL d   1       0.431  48.151 -17.128  1.00  0.00     0.169 HD
BRANCH  24  27
ATOM     27  C   UNL d   1      -1.789  47.554 -15.895  0.00  0.00     0.064 C 
ATOM     28  C   UNL d   1      -1.947  47.530 -14.582  0.00  0.00     0.017 C 
ENDBRANCH  24  27
ENDBRANCH   1  23
BRANCH  10  29
ATOM     29  N   UNL d   1      -0.487  50.803 -22.009  0.00  0.00    -0.342 N 
ATOM     30  HN  UNL d   1      -0.063  49.917 -22.283  1.00  0.00     0.167 HD
BRANCH  29  31
ATOM     31  C   UNL d   1      -1.810  51.136 -22.443  0.00  0.00     0.035 A 
ATOM     32  C   UNL d   1      -1.955  51.410 -23.800  0.00  0.00     0.056 A 
ATOM     33  C   UNL d   1      -3.212  51.737 -24.278  0.00  0.00     0.074 A 
ATOM     34 CL   UNL d   1      -3.481  52.099 -25.988  0.00  0.00    -0.081 Cl
ATOM     35  C   UNL d   1      -4.288  51.785 -23.399  0.00  0.00     0.138 A 
ATOM     36  F   UNL d   1      -5.501  52.109 -23.905  0.00  0.00    -0.204 F 
ATOM     37  C   UNL d   1      -4.107  51.511 -22.072  0.00  0.00     0.046 A 
ATOM     38  C   UNL d   1      -2.856  51.180 -21.573  0.00  0.00     0.032 A 
ENDBRANCH  29  31
ENDBRANCH  10  29
TORSDOF 9
ENDMDL
MODEL 2
REMARK VINA RESULT:      -7.5      2.855      3.496
REMARK  9 active torsions:
REMARK  status: ('A' for Active; 'I' for Inactive)
REMARK    1  A    between atoms: C_2  and  C_3 
REMARK       I    between atoms: C_3  and  N_5 
REMARK    2  A    between atoms: N_5  and  C_7 
REMARK    3  A    between atoms: C_8  and  O_9 
REMARK    4  A    between atoms: O_9  and  C_10 
REMARK    5  A    between atoms: C_10  and  C_11 
REMARK    6  A    between atoms: C_11  and  C_12 
REMARK    7  A    between atoms: C_12  and  N_13 
REMARK    8  A    between atoms: C_26  and  N_27 
REMARK    9  A    between atoms: N_27  and  C_29 
ROOT
ATOM      1  C   UNL d   1      -0.355  50.425 -19.473  0.00  0.00     0.069 A 
ATOM      2  C   UNL d   1       0.378  51.006 -18.460  0.00  0.00     0.097 A 
ATOM      3  C   UNL d   1       1.141  52.121 -18.714  0.00  0.00     0.069 A 
ATOM      4  C   UNL d   1       1.187  52.667 -19.962  0.00  0.00     0.049 A 
ATOM      5  N   UNL d   1       1.952  53.755 -20.144  0.00  0.00    -0.351 N 
ATOM      6  HN  UNL d   1       2.483  54.163 -19.375  1.00  0.00     0.166 HD
ATOM      7  C   UNL d   1       1.992  54.286 -21.377  0.00  0.00     0.182 A 
ATOM      8  N   UNL d   1       1.310  53.786 -22.419  0.00  0.00    -0.338 N 
ATOM      9  HN  UNL d   1       1.369  54.221 -23.340  1.00  0.00     0.168 HD
ATOM     10  C   UNL d   1       0.551  52.698 -22.220  0.00  0.00     0.119 A 
ATOM     11  C   UNL d   1       0.450  52.081 -20.981  0.00  0.00     0.037 A 
ATOM     12  C   UNL d   1      -0.329  50.962 -20.766  0.00  0.00     0.050 A 
ENDROOT
BRANCH   2  13
ATOM     13  O   UNL d   1       0.391  50.512 -17.151  0.00  0.00    -0.349 OA
BRANCH  13  14
ATOM     14  C   UNL d   1       1.230  51.077 -16.156  0.00  0.00     0.177 C 
BRANCH  14  15
ATOM     15  C   UNL d   1       0.902  50.460 -14.827  0.00  0.00     0.057 C 
BRANCH  15  16
ATOM     16  C   UNL d   1      -0.309  49.573 -14.986  0.00  0.00     0.274 C 
BRANCH  16  17
ATOM     17  N   UNL d   1      -1.350  49.841 -14.029  0.00  0.00     0.092 N 
ATOM     18  C   UNL d   1      -1.326  51.206 -13.550  0.00  0.00     0.298 C 
ATOM     19  C   UNL d   1      -2.757  51.698 -13.298  0.00  0.00     0.198 C 
ATOM     20  O   UNL d   1      -3.510  51.716 -14.459  0.00  0.00    -0.388 OA
ATOM     21  C   UNL d   1      -3.128  50.720 -15.367  0.00  0.00     0.198 C 
ATOM     22  C   UNL d   1      -2.647  49.550 -14.549  0.00  0.00     0.298 C 
ENDBRANCH  16  17
ENDBRANCH  15  16
ENDBRANCH  14  15
ENDBRANCH  13  14
ENDBRANCH   2  13
BRANCH   1  23
ATOM     23  N   UNL d   1      -1.131  49.272 -19.160  0.00  0.00    -0.321 N 
ATOM     24  C   UNL d   1      -2.514  49.289 -18.854  0.00  0.00     0.245 C 
ATOM     25  O   UNL d   1      -3.130  50.387 -18.864  0.00  0.00    -0.268 OA
ATOM     26  HN  UNL d   1      -0.657  48.369 -19.156  1.00  0.00     0.169 HD
BRANCH  24  27
ATOM     27  C   UNL d   1      -3.168  48.025 -18.538  0.00  0.00     0.064 C 
ATOM     28  C   UNL d   1      -3.874  47.380 -19.454  0.00  0.00     0.017 C 
ENDBRANCH  24  27
ENDBRANCH   1  23
BRANCH  10  29
ATOM     29  N   UNL d   1      -0.167  52.170 -23.331  0.00  0.00    -0.342 N 
ATOM     30  HN  UNL d   1      -1.089  51.756 -23.200  1.00  0.00     0.167 HD
BRANCH  29  31
ATOM     31  C   UNL d   1       0.423  52.227 -24.634  0.00  0.00     0.035 A 
ATOM     32  C   UNL d   1      -0.190  53.087 -25.542  0.00  0.00     0.056 A 
ATOM     33  C   UNL d   1       0.337  53.185 -26.818  0.00  0.00     0.074 A 
ATOM     34 CL   UNL d   1      -0.383  54.253 -28.031  0.00  0.00    -0.081 Cl
ATOM     35  C   UNL d   1       1.453  52.431 -27.159  0.00  0.00     0.138 A 
ATOM     36  F   UNL d   1       1.938  52.554 -28.417  0.00  0.00    -0.204 F 
ATOM     37  C   UNL d   1       2.027  51.596 -26.240  0.00  0.00     0.046 A 
ATOM     38  C   UNL d   1       1.516  51.483 -24.957  0.00  0.00     0.032 A 
ENDBRANCH  29  31
ENDBRANCH  10  29
TORSDOF 9
ENDMDL
MODEL 3
REMARK VINA RESULT:      -7.5      4.784      8.220
REMARK  9 active torsions:
REMARK  status: ('A' for Active; 'I' for Inactive)
REMARK    1  A    between atoms: C_2  and  C_3 
REMARK       I    between atoms: C_3  and  N_5 
REMARK    2  A    between atoms: N_5  and  C_7 
REMARK    3  A    between atoms: C_8  and  O_9 
REMARK    4  A    between atoms: O_9  and  C_10 
REMARK    5  A    between atoms: C_10  and  C_11 
REMARK    6  A    between atoms: C_11  and  C_12 
REMARK    7  A    between atoms: C_12  and  N_13 
REMARK    8  A    between atoms: C_26  and  N_27 
REMARK    9  A    between atoms: N_27  and  C_29 
ROOT
ATOM      1  C   UNL d   1      -0.501  49.087 -17.936  0.00  0.00     0.069 A 
ATOM      2  C   UNL d   1      -0.579  48.846 -19.291  0.00  0.00     0.097 A 
ATOM      3  C   UNL d   1      -0.045  49.745 -20.183  0.00  0.00     0.069 A 
ATOM      4  C   UNL d   1       0.565  50.883 -19.748  0.00  0.00     0.049 A 
ATOM      5  N   UNL d   1       1.065  51.721 -20.670  0.00  0.00    -0.351 N 
ATOM      6  HN  UNL d   1       0.992  51.516 -21.666  1.00  0.00     0.166 HD
ATOM      7  C   UNL d   1       1.664  52.840 -20.232  0.00  0.00     0.182 A 
ATOM      8  N   UNL d   1       1.785  53.153 -18.932  0.00  0.00    -0.338 N 
ATOM      9  HN  UNL d   1       2.248  54.015 -18.643  1.00  0.00     0.168 HD
ATOM     10  C   UNL d   1       1.279  52.305 -18.024  0.00  0.00     0.119 A 
ATOM     11  C   UNL d   1       0.643  51.126 -18.383  0.00  0.00     0.037 A 
ATOM     12  C   UNL d   1       0.121  50.247 -17.456  0.00  0.00     0.050 A 
ENDROOT
BRANCH   2  13
ATOM     13  O   UNL d   1      -1.188  47.705 -19.826  0.00  0.00    -0.349 OA
BRANCH  13  14
ATOM     14  C   UNL d   1      -1.375  47.555 -21.225  0.00  0.00     0.177 C 
BRANCH  14  15
ATOM     15  C   UNL d   1      -2.834  47.708 -21.545  0.00  0.00     0.057 C 
BRANCH  15  16
ATOM     16  C   UNL d   1      -2.975  48.535 -22.800  0.00  0.00     0.274 C 
BRANCH  16  17
ATOM     17  N   UNL d   1      -2.543  49.899 -22.642  0.00  0.00     0.092 N 
ATOM     18  C   UNL d   1      -2.462  50.605 -23.903  0.00  0.00     0.298 C 
ATOM     19  C   UNL d   1      -2.860  52.074 -23.708  0.00  0.00     0.198 C 
ATOM     20  O   UNL d   1      -4.170  52.202 -23.283  0.00  0.00    -0.388 OA
ATOM     21  C   UNL d   1      -4.594  51.122 -22.499  0.00  0.00     0.198 C 
ATOM     22  C   UNL d   1      -3.384  50.630 -21.750  0.00  0.00     0.298 C 
ENDBRANCH  16  17
ENDBRANCH  15  16
ENDBRANCH  14  15
ENDBRANCH  13  14
ENDBRANCH   2  13
BRANCH   1  23
ATOM     23  N   UNL d   1      -1.068  48.124 -17.052  0.00  0.00    -0.321 N 
ATOM     24  C   UNL d   1      -2.382  48.186 -16.528  0.00  0.00     0.245 C 
ATOM     25  O   UNL d   1      -3.130  49.143 -16.860  0.00  0.00    -0.268 OA
ATOM     26  HN  UNL d   1      -0.485  47.334 -16.776  1.00  0.00     0.169 HD
BRANCH  24  27
ATOM     27  C   UNL d   1      -2.815  47.130 -15.619  0.00  0.00     0.064 C 
ATOM     28  C   UNL d   1      -2.228  45.945 -15.630  0.00  0.00     0.017 C 
ENDBRANCH  24  27
ENDBRANCH   1  23
BRANCH  10  29
ATOM     29  N   UNL d   1       1.408  52.645 -16.647  0.00  0.00    -0.342 N 
ATOM     30  HN  UNL d   1       0.630  53.074 -16.146  1.00  0.00     0.167 HD
BRANCH  29  31
ATOM     31  C   UNL d   1       2.642  52.377 -15.973  0.00  0.00     0.035 A 
ATOM     32  C   UNL d   1       2.552  51.596 -14.825  0.00  0.00     0.056 A 
ATOM     33  C   UNL d   1       3.713  51.303 -14.131  0.00  0.00     0.074 A 
ATOM     34 CL   UNL d   1       3.684  50.318 -12.662  0.00  0.00    -0.081 Cl
ATOM     35  C   UNL d   1       4.929  51.791 -14.594  0.00  0.00     0.138 A 
ATOM     36  F   UNL d   1       6.042  51.482 -13.888  0.00  0.00    -0.204 F 
ATOM     37  C   UNL d   1       4.979  52.556 -15.726  0.00  0.00     0.046 A 
ATOM     38  C   UNL d   1       3.827  52.861 -16.436  0.00  0.00     0.032 A 
ENDBRANCH  29  31
ENDBRANCH  10  29
TORSDOF 9
ENDMDL
MODEL 4
REMARK VINA RESULT:      -7.2      4.271      9.048
REMARK  9 active torsions:
REMARK  status: ('A' for Active; 'I' for Inactive)
REMARK    1  A    between atoms: C_2  and  C_3 
REMARK       I    between atoms: C_3  and  N_5 
REMARK    2  A    between atoms: N_5  and  C_7 
REMARK    3  A    between atoms: C_8  and  O_9 
REMARK    4  A    between atoms: O_9  and  C_10 
REMARK    5  A    between atoms: C_10  and  C_11 
REMARK    6  A    between atoms: C_11  and  C_12 
REMARK    7  A    between atoms: C_12  and  N_13 
REMARK    8  A    between atoms: C_26  and  N_27 
REMARK    9  A    between atoms: N_27  and  C_29 
ROOT
ATOM      1  C   UNL d   1      -0.048  50.695 -19.854  0.00  0.00     0.069 A 
ATOM      2  C   UNL d   1       0.540  51.917 -20.102  0.00  0.00     0.097 A 
ATOM      3  C   UNL d   1       1.253  52.551 -19.112  0.00  0.00     0.069 A 
ATOM      4  C   UNL d   1       1.389  51.990 -17.878  0.00  0.00     0.049 A 
ATOM      5  N   UNL d   1       2.096  52.661 -16.956  0.00  0.00    -0.351 N 
ATOM      6  HN  UNL d   1       2.521  53.563 -17.168  1.00  0.00     0.166 HD
ATOM      7  C   UNL d   1       2.224  52.100 -15.742  0.00  0.00     0.182 A 
ATOM      8  N   UNL d   1       1.684  50.915 -15.415  0.00  0.00    -0.338 N 
ATOM      9  HN  UNL d   1       1.806  50.525 -14.480  1.00  0.00     0.168 HD
ATOM     10  C   UNL d   1       0.979  50.258 -16.349  0.00  0.00     0.119 A 
ATOM     11  C   UNL d   1       0.794  50.760 -17.629  0.00  0.00     0.037 A 
ATOM     12  C   UNL d   1       0.072  50.091 -18.596  0.00  0.00     0.050 A 
ENDROOT
BRANCH   2  13
ATOM     13  O   UNL d   1       0.452  52.567 -21.337  0.00  0.00    -0.349 OA
BRANCH  13  14
ATOM     14  C   UNL d   1       1.255  53.698 -21.637  0.00  0.00     0.177 C 
BRANCH  14  15
ATOM     15  C   UNL d   1       1.220  53.948 -23.117  0.00  0.00     0.057 C 
BRANCH  15  16
ATOM     16  C   UNL d   1       0.876  52.659 -23.822  0.00  0.00     0.274 C 
BRANCH  16  17
ATOM     17  N   UNL d   1       0.065  52.842 -24.997  0.00  0.00     0.092 N 
ATOM     18  C   UNL d   1       0.281  54.127 -25.626  0.00  0.00     0.298 C 
ATOM     19  C   UNL d   1       0.161  53.991 -27.149  0.00  0.00     0.198 C 
ATOM     20  O   UNL d   1       1.123  53.145 -27.671  0.00  0.00    -0.388 OA
ATOM     21  C   UNL d   1       1.493  52.130 -26.779  0.00  0.00     0.198 C 
ATOM     22  C   UNL d   1       0.271  51.808 -25.959  0.00  0.00     0.298 C 
ENDBRANCH  16  17
ENDBRANCH  15  16
ENDBRANCH  14  15
ENDBRANCH  13  14
ENDBRANCH   2  13
BRANCH   1  23
ATOM     23  N   UNL d   1      -0.775  50.077 -20.912  0.00  0.00    -0.321 N 
ATOM     24  C   UNL d   1      -2.160  50.255 -21.151  0.00  0.00     0.245 C 
ATOM     25  O   UNL d   1      -2.819  51.018 -20.396  0.00  0.00    -0.268 OA
ATOM     26  HN  UNL d   1      -0.262  49.462 -21.543  1.00  0.00     0.169 HD
BRANCH  24  27
ATOM     27  C   UNL d   1      -2.767  49.540 -22.268  0.00  0.00     0.064 C 
ATOM     28  C   UNL d   1      -2.440  48.284 -22.526  0.00  0.00     0.017 C 
ENDBRANCH  24  27
ENDBRANCH   1  23
BRANCH  10  29
ATOM     29  N   UNL d   1       0.407  49.003 -15.995  0.00  0.00    -0.342 N 
ATOM     30  HN  UNL d   1       0.825  48.133 -16.324  1.00  0.00     0.167 HD
BRANCH  29  31
ATOM     31  C   UNL d   1      -0.764  48.977 -15.170  0.00  0.00     0.035 A 
ATOM     32  C   UNL d   1      -1.445  50.184 -15.044  0.00  0.00     0.056 A 
ATOM     33  C   UNL d   1      -2.585  50.220 -14.259  0.00  0.00     0.074 A 
ATOM     34 CL   UNL d   1      -3.508  51.714 -14.046  0.00  0.00    -0.081 Cl
ATOM     35  C   UNL d   1      -3.017  49.062 -13.625  0.00  0.00     0.138 A 
ATOM     36  F   UNL d   1      -4.136  49.138 -12.866  0.00  0.00    -0.204 F 
ATOM     37  C   UNL d   1      -2.320  47.894 -13.772  0.00  0.00     0.046 A 
ATOM     38  C   UNL d   1      -1.176  47.836 -14.553  0.00  0.00     0.032 A 
ENDBRANCH  29  31
ENDBRANCH  10  29
TORSDOF 9
ENDMDL
MODEL 5
REMARK VINA RESULT:      -7.0      5.198      9.884
REMARK  9 active torsions:
REMARK  status: ('A' for Active; 'I' for Inactive)
REMARK    1  A    between atoms: C_2  and  C_3 
REMARK       I    between atoms: C_3  and  N_5 
REMARK    2  A    between atoms: N_5  and  C_7 
REMARK    3  A    between atoms: C_8  and  O_9 
REMARK    4  A    between atoms: O_9  and  C_10 
REMARK    5  A    between atoms: C_10  and  C_11 
REMARK    6  A    between atoms: C_11  and  C_12 
REMARK    7  A    between atoms: C_12  and  N_13 
REMARK    8  A    between atoms: C_26  and  N_27 
REMARK    9  A    between atoms: N_27  and  C_29 
ROOT
ATOM      1  C   UNL d   1      -1.346  51.348 -23.389  0.00  0.00     0.069 A 
ATOM      2  C   UNL d   1      -2.647  51.714 -23.659  0.00  0.00     0.097 A 
ATOM      3  C   UNL d   1      -3.628  51.519 -22.715  0.00  0.00     0.069 A 
ATOM      4  C   UNL d   1      -3.333  50.963 -21.506  0.00  0.00     0.049 A 
ATOM      5  N   UNL d   1      -4.336  50.799 -20.629  0.00  0.00    -0.351 N 
ATOM      6  HN  UNL d   1      -5.290  51.080 -20.856  1.00  0.00     0.166 HD
ATOM      7  C   UNL d   1      -4.037  50.251 -19.440  0.00  0.00     0.182 A 
ATOM      8  N   UNL d   1      -2.799  49.866 -19.094  0.00  0.00    -0.338 N 
ATOM      9  HN  UNL d   1      -2.616  49.453 -18.179  1.00  0.00     0.168 HD
ATOM     10  C   UNL d   1      -1.808  50.037 -19.983  0.00  0.00     0.119 A 
ATOM     11  C   UNL d   1      -2.023  50.594 -21.235  0.00  0.00     0.037 A 
ATOM     12  C   UNL d   1      -1.011  50.775 -22.155  0.00  0.00     0.050 A 
ENDROOT
BRANCH   2  13
ATOM     13  O   UNL d   1      -3.039  52.289 -24.873  0.00  0.00    -0.349 OA
BRANCH  13  14
ATOM     14  C   UNL d   1      -3.979  51.651 -25.724  0.00  0.00     0.177 C 
BRANCH  14  15
ATOM     15  C   UNL d   1      -3.253  51.039 -26.887  0.00  0.00     0.057 C 
BRANCH  15  16
ATOM     16  C   UNL d   1      -2.855  49.629 -26.528  0.00  0.00     0.274 C 
BRANCH  16  17
ATOM     17  N   UNL d   1      -3.813  48.953 -25.693  0.00  0.00     0.092 N 
ATOM     18  C   UNL d   1      -4.689  48.082 -26.447  0.00  0.00     0.298 C 
ATOM     19  C   UNL d   1      -5.033  46.839 -25.616  0.00  0.00     0.198 C 
ATOM     20  O   UNL d   1      -3.910  46.087 -25.321  0.00  0.00    -0.388 OA
ATOM     21  C   UNL d   1      -2.753  46.867 -25.198  0.00  0.00     0.198 C 
ATOM     22  C   UNL d   1      -3.187  48.203 -24.654  0.00  0.00     0.298 C 
ENDBRANCH  16  17
ENDBRANCH  15  16
ENDBRANCH  14  15
ENDBRANCH  13  14
ENDBRANCH   2  13
BRANCH   1  23
ATOM     23  N   UNL d   1      -0.365  51.571 -24.398  0.00  0.00    -0.321 N 
ATOM     24  C   UNL d   1       0.726  52.466 -24.279  0.00  0.00     0.245 C 
ATOM     25  O   UNL d   1       0.871  53.116 -23.209  0.00  0.00    -0.268 OA
ATOM     26  HN  UNL d   1      -0.455  51.049 -25.270  1.00  0.00     0.169 HD
BRANCH  24  27
ATOM     27  C   UNL d   1       1.640  52.598 -25.407  0.00  0.00     0.064 C 
ATOM     28  C   UNL d   1       1.445  51.910 -26.521  0.00  0.00     0.017 C 
ENDBRANCH  24  27
ENDBRANCH   1  23
BRANCH  10  29
ATOM     29  N   UNL d   1      -0.497  49.624 -19.611  0.00  0.00    -0.342 N 
ATOM     30  HN  UNL d   1      -0.078  48.795 -20.032  1.00  0.00     0.167 HD
BRANCH  29  31
ATOM     31  C   UNL d   1       0.227  50.386 -18.639  0.00  0.00     0.035 A 
ATOM     32  C   UNL d   1       0.366  49.797 -17.385  0.00  0.00     0.056 A 
ATOM     33  C   UNL d   1       1.057  50.487 -16.404  0.00  0.00     0.074 A 
ATOM     34 CL   UNL d   1       1.278  49.810 -14.785  0.00  0.00    -0.081 Cl
ATOM     35  C   UNL d   1       1.589  51.738 -16.692  0.00  0.00     0.138 A 
ATOM     36  F   UNL d   1       2.258  52.381 -15.706  0.00  0.00    -0.204 F 
ATOM     37  C   UNL d   1       1.431  52.285 -17.935  0.00  0.00     0.046 A 
ATOM     38  C   UNL d   1       0.743  51.611 -18.932  0.00  0.00     0.032 A 
ENDBRANCH  29  31
ENDBRANCH  10  29
TORSDOF 9
ENDMDL
MODEL 6
REMARK VINA RESULT:      -6.8      2.971      4.642
REMARK  9 active torsions:
REMARK  status: ('A' for Active; 'I' for Inactive)
REMARK    1  A    between atoms: C_2  and  C_3 
REMARK       I    between atoms: C_3  and  N_5 
REMARK    2  A    between atoms: N_5  and  C_7 
REMARK    3  A    between atoms: C_8  and  O_9 
REMARK    4  A    between atoms: O_9  and  C_10 
REMARK    5  A    between atoms: C_10  and  C_11 
REMARK    6  A    between atoms: C_11  and  C_12 
REMARK    7  A    between atoms: C_12  and  N_13 
REMARK    8  A    between atoms: C_26  and  N_27 
REMARK    9  A    between atoms: N_27  and  C_29 
ROOT
ATOM      1  C   UNL d   1      -0.538  49.766 -20.067  0.00  0.00     0.069 A 
ATOM      2  C   UNL d   1      -1.307  48.629 -19.936  0.00  0.00     0.097 A 
ATOM      3  C   UNL d   1      -2.197  48.281 -20.923  0.00  0.00     0.069 A 
ATOM      4  C   UNL d   1      -2.336  49.048 -22.041  0.00  0.00     0.049 A 
ATOM      5  N   UNL d   1      -3.223  48.654 -22.968  0.00  0.00    -0.351 N 
ATOM      6  HN  UNL d   1      -3.778  47.807 -22.843  1.00  0.00     0.166 HD
ATOM      7  C   UNL d   1      -3.354  49.416 -24.066  0.00  0.00     0.182 A 
ATOM      8  N   UNL d   1      -2.647  50.537 -24.276  0.00  0.00    -0.338 N 
ATOM      9  HN  UNL d   1      -2.778  51.086 -25.125  1.00  0.00     0.168 HD
ATOM     10  C   UNL d   1      -1.764  50.917 -23.339  0.00  0.00     0.119 A 
ATOM     11  C   UNL d   1      -1.562  50.193 -22.173  0.00  0.00     0.037 A 
ATOM     12  C   UNL d   1      -0.657  50.575 -21.205  0.00  0.00     0.050 A 
ENDROOT
BRANCH   2  13
ATOM     13  O   UNL d   1      -1.231  47.785 -18.822  0.00  0.00    -0.349 OA
BRANCH  13  14
ATOM     14  C   UNL d   1      -2.345  47.590 -17.965  0.00  0.00     0.177 C 
BRANCH  14  15
ATOM     15  C   UNL d   1      -1.982  48.036 -16.578  0.00  0.00     0.057 C 
BRANCH  15  16
ATOM     16  C   UNL d   1      -2.892  49.172 -16.177  0.00  0.00     0.274 C 
BRANCH  16  17
ATOM     17  N   UNL d   1      -2.383  49.961 -15.086  0.00  0.00     0.092 N 
ATOM     18  C   UNL d   1      -3.186  51.137 -14.830  0.00  0.00     0.298 C 
ATOM     19  C   UNL d   1      -3.213  51.434 -13.325  0.00  0.00     0.198 C 
ATOM     20  O   UNL d   1      -3.799  50.409 -12.605  0.00  0.00    -0.388 OA
ATOM     21  C   UNL d   1      -3.602  49.153 -13.194  0.00  0.00     0.198 C 
ATOM     22  C   UNL d   1      -2.264  49.203 -13.883  0.00  0.00     0.298 C 
ENDBRANCH  16  17
ENDBRANCH  15  16
ENDBRANCH  14  15
ENDBRANCH  13  14
ENDBRANCH   2  13
BRANCH   1  23
ATOM     23  N   UNL d   1       0.371  50.084 -19.018  0.00  0.00    -0.321 N 
ATOM     24  C   UNL d   1       0.079  50.942 -17.930  0.00  0.00     0.245 C 
ATOM     25  O   UNL d   1      -1.063  51.468 -17.854  0.00  0.00    -0.268 OA
ATOM     26  HN  UNL d   1       1.300  49.662 -19.051  1.00  0.00     0.169 HD
BRANCH  24  27
ATOM     27  C   UNL d   1       1.122  51.183 -16.939  0.00  0.00     0.064 C 
ATOM     28  C   UNL d   1       1.143  50.509 -15.801  0.00  0.00     0.017 C 
ENDBRANCH  24  27
ENDBRANCH   1  23
BRANCH  10  29
ATOM     29  N   UNL d   1      -1.019  52.109 -23.566  0.00  0.00    -0.342 N 
ATOM     30  HN  UNL d   1      -1.096  52.896 -22.923  1.00  0.00     0.167 HD
BRANCH  29  31
ATOM     31  C   UNL d   1      -0.160  52.189 -24.710  0.00  0.00     0.035 A 
ATOM     32  C   UNL d   1      -0.583  53.037 -25.729  0.00  0.00     0.056 A 
ATOM     33  C   UNL d   1       0.206  53.156 -26.860  0.00  0.00     0.074 A 
ATOM     34 CL   UNL d   1      -0.259  54.211 -28.201  0.00  0.00    -0.081 Cl
ATOM     35  C   UNL d   1       1.390  52.433 -26.947  0.00  0.00     0.138 A 
ATOM     36  F   UNL d   1       2.135  52.577 -28.069  0.00  0.00    -0.204 F 
ATOM     37  C   UNL d   1       1.773  51.610 -25.925  0.00  0.00     0.046 A 
ATOM     38  C   UNL d   1       0.996  51.476 -24.784  0.00  0.00     0.032 A 
ENDBRANCH  29  31
ENDBRANCH  10  29
TORSDOF 9
ENDMDL
MODEL 7
REMARK VINA RESULT:      -6.7      3.283      4.022
REMARK  9 active torsions:
REMARK  status: ('A' for Active; 'I' for Inactive)
REMARK    1  A    between atoms: C_2  and  C_3 
REMARK       I    between atoms: C_3  and  N_5 
REMARK    2  A    between atoms: N_5  and  C_7 
REMARK    3  A    between atoms: C_8  and  O_9 
REMARK    4  A    between atoms: O_9  and  C_10 
REMARK    5  A    between atoms: C_10  and  C_11 
REMARK    6  A    between atoms: C_11  and  C_12 
REMARK    7  A    between atoms: C_12  and  N_13 
REMARK    8  A    between atoms: C_26  and  N_27 
REMARK    9  A    between atoms: N_27  and  C_29 
ROOT
ATOM      1  C   UNL d   1       0.558  51.224 -19.985  0.00  0.00     0.069 A 
ATOM      2  C   UNL d   1       1.136  52.281 -19.316  0.00  0.00     0.097 A 
ATOM      3  C   UNL d   1       1.543  53.396 -20.009  0.00  0.00     0.069 A 
ATOM      4  C   UNL d   1       1.385  53.475 -21.361  0.00  0.00     0.049 A 
ATOM      5  N   UNL d   1       1.804  54.591 -21.978  0.00  0.00    -0.351 N 
ATOM      6  HN  UNL d   1       2.228  55.358 -21.456  1.00  0.00     0.166 HD
ATOM      7  C   UNL d   1       1.645  54.660 -23.310  0.00  0.00     0.182 A 
ATOM      8  N   UNL d   1       1.093  53.678 -24.040  0.00  0.00    -0.338 N 
ATOM      9  HN  UNL d   1       0.992  53.772 -25.051  1.00  0.00     0.168 HD
ATOM     10  C   UNL d   1       0.680  52.570 -23.407  0.00  0.00     0.119 A 
ATOM     11  C   UNL d   1       0.804  52.409 -22.034  0.00  0.00     0.037 A 
ATOM     12  C   UNL d   1       0.382  51.274 -21.375  0.00  0.00     0.050 A 
ENDROOT
BRANCH   2  13
ATOM     13  O   UNL d   1       1.337  52.285 -17.931  0.00  0.00    -0.349 OA
BRANCH  13  14
ATOM     14  C   UNL d   1       2.585  52.660 -17.367  0.00  0.00     0.177 C 
BRANCH  14  15
ATOM     15  C   UNL d   1       2.621  52.234 -15.928  0.00  0.00     0.057 C 
BRANCH  15  16
ATOM     16  C   UNL d   1       4.024  52.412 -15.401  0.00  0.00     0.274 C 
BRANCH  16  17
ATOM     17  N   UNL d   1       4.130  52.244 -13.975  0.00  0.00     0.092 N 
ATOM     18  C   UNL d   1       2.961  51.614 -13.401  0.00  0.00     0.298 C 
ATOM     19  C   UNL d   1       3.374  50.710 -12.232  0.00  0.00     0.198 C 
ATOM     20  O   UNL d   1       4.200  49.679 -12.642  0.00  0.00    -0.388 OA
ATOM     21  C   UNL d   1       5.001  50.029 -13.736  0.00  0.00     0.198 C 
ATOM     22  C   UNL d   1       5.292  51.501 -13.607  0.00  0.00     0.298 C 
ENDBRANCH  16  17
ENDBRANCH  15  16
ENDBRANCH  14  15
ENDBRANCH  13  14
ENDBRANCH   2  13
BRANCH   1  23
ATOM     23  N   UNL d   1       0.151  50.091 -19.223  0.00  0.00    -0.321 N 
ATOM     24  C   UNL d   1      -1.146  49.903 -18.687  0.00  0.00     0.245 C 
ATOM     25  O   UNL d   1      -2.027  50.779 -18.893  0.00  0.00    -0.268 OA
ATOM     26  HN  UNL d   1       0.844  49.362 -19.050  1.00  0.00     0.169 HD
BRANCH  24  27
ATOM     27  C   UNL d   1      -1.407  48.695 -17.912  0.00  0.00     0.064 C 
ATOM     28  C   UNL d   1      -0.998  48.593 -16.658  0.00  0.00     0.017 C 
ENDBRANCH  24  27
ENDBRANCH   1  23
BRANCH  10  29
ATOM     29  N   UNL d   1       0.099  51.530 -24.188  0.00  0.00    -0.342 N 
ATOM     30  HN  UNL d   1       0.677  50.774 -24.553  1.00  0.00     0.167 HD
BRANCH  29  31
ATOM     31  C   UNL d   1      -1.308  51.560 -24.454  0.00  0.00     0.035 A 
ATOM     32  C   UNL d   1      -1.733  50.828 -25.559  0.00  0.00     0.056 A 
ATOM     33  C   UNL d   1      -3.083  50.818 -25.866  0.00  0.00     0.074 A 
ATOM     34 CL   UNL d   1      -3.705  49.914 -27.252  0.00  0.00    -0.081 Cl
ATOM     35  C   UNL d   1      -3.971  51.533 -25.071  0.00  0.00     0.138 A 
ATOM     36  F   UNL d   1      -5.283  51.499 -25.403  0.00  0.00    -0.204 F 
ATOM     37  C   UNL d   1      -3.516  52.242 -23.994  0.00  0.00     0.046 A 
ATOM     38  C   UNL d   1      -2.168  52.264 -23.669  0.00  0.00     0.032 A 
ENDBRANCH  29  31
ENDBRANCH  10  29
TORSDOF 9
ENDMDL
MODEL 8
REMARK VINA RESULT:      -6.7      4.872      9.194
REMARK  9 active torsions:
REMARK  status: ('A' for Active; 'I' for Inactive)
REMARK    1  A    between atoms: C_2  and  C_3 
REMARK       I    between atoms: C_3  and  N_5 
REMARK    2  A    between atoms: N_5  and  C_7 
REMARK    3  A    between atoms: C_8  and  O_9 
REMARK    4  A    between atoms: O_9  and  C_10 
REMARK    5  A    between atoms: C_10  and  C_11 
REMARK    6  A    between atoms: C_11  and  C_12 
REMARK    7  A    between atoms: C_12  and  N_13 
REMARK    8  A    between atoms: C_26  and  N_27 
REMARK    9  A    between atoms: N_27  and  C_29 
ROOT
ATOM      1  C   UNL d   1       0.321  50.411 -19.454  0.00  0.00     0.069 A 
ATOM      2  C   UNL d   1      -0.269  49.176 -19.616  0.00  0.00     0.097 A 
ATOM      3  C   UNL d   1      -0.716  48.477 -18.520  0.00  0.00     0.069 A 
ATOM      4  C   UNL d   1      -0.583  48.987 -17.263  0.00  0.00     0.049 A 
ATOM      5  N   UNL d   1      -1.039  48.254 -16.235  0.00  0.00    -0.351 N 
ATOM      6  HN  UNL d   1      -1.472  47.343 -16.386  1.00  0.00     0.166 HD
ATOM      7  C   UNL d   1      -0.902  48.764 -15.000  0.00  0.00     0.182 A 
ATOM      8  N   UNL d   1      -0.340  49.957 -14.752  0.00  0.00    -0.338 N 
ATOM      9  HN  UNL d   1      -0.257  50.306 -13.797  1.00  0.00     0.168 HD
ATOM     10  C   UNL d   1       0.111  50.676 -15.791  0.00  0.00     0.119 A 
ATOM     11  C   UNL d   1       0.014  50.230 -17.101  0.00  0.00     0.037 A 
ATOM     12  C   UNL d   1       0.473  50.963 -18.175  0.00  0.00     0.050 A 
ENDROOT
BRANCH   2  13
ATOM     13  O   UNL d   1      -0.446  48.576 -20.867  0.00  0.00    -0.349 OA
BRANCH  13  14
ATOM     14  C   UNL d   1      -1.720  48.116 -21.294  0.00  0.00     0.177 C 
BRANCH  14  15
ATOM     15  C   UNL d   1      -2.180  48.950 -22.455  0.00  0.00     0.057 C 
BRANCH  15  16
ATOM     16  C   UNL d   1      -3.384  49.755 -22.032  0.00  0.00     0.274 C 
BRANCH  16  17
ATOM     17  N   UNL d   1      -3.382  51.103 -22.535  0.00  0.00     0.092 N 
ATOM     18  C   UNL d   1      -2.563  51.254 -23.718  0.00  0.00     0.298 C 
ATOM     19  C   UNL d   1      -3.195  52.283 -24.664  0.00  0.00     0.198 C 
ATOM     20  O   UNL d   1      -4.439  51.879 -25.112  0.00  0.00    -0.388 OA
ATOM     21  C   UNL d   1      -5.122  51.092 -24.176  0.00  0.00     0.198 C 
ATOM     22  C   UNL d   1      -4.700  51.575 -22.813  0.00  0.00     0.298 C 
ENDBRANCH  16  17
ENDBRANCH  15  16
ENDBRANCH  14  15
ENDBRANCH  13  14
ENDBRANCH   2  13
BRANCH   1  23
ATOM     23  N   UNL d   1       0.766  51.098 -20.620  0.00  0.00    -0.321 N 
ATOM     24  C   UNL d   1       0.199  52.296 -21.116  0.00  0.00     0.245 C 
ATOM     25  O   UNL d   1      -0.763  52.822 -20.495  0.00  0.00    -0.268 OA
ATOM     26  HN  UNL d   1       1.551  50.698 -21.135  1.00  0.00     0.169 HD
BRANCH  24  27
ATOM     27  C   UNL d   1       0.756  52.874 -22.334  0.00  0.00     0.064 C 
ATOM     28  C   UNL d   1       0.589  52.279 -23.504  0.00  0.00     0.017 C 
ENDBRANCH  24  27
ENDBRANCH   1  23
BRANCH  10  29
ATOM     29  N   UNL d   1       0.709  51.940 -15.520  0.00  0.00    -0.342 N 
ATOM     30  HN  UNL d   1       0.135  52.780 -15.455  1.00  0.00     0.167 HD
BRANCH  29  31
ATOM     31  C   UNL d   1       2.128  52.017 -15.338  0.00  0.00     0.035 A 
ATOM     32  C   UNL d   1       2.625  51.426 -14.180  0.00  0.00     0.056 A 
ATOM     33  C   UNL d   1       3.989  51.467 -13.950  0.00  0.00     0.074 A 
ATOM     34 CL   UNL d   1       4.701  50.741 -12.503  0.00  0.00    -0.081 Cl
ATOM     35  C   UNL d   1       4.820  52.092 -14.872  0.00  0.00     0.138 A 
ATOM     36  F   UNL d   1       6.149  52.112 -14.612  0.00  0.00    -0.204 F 
ATOM     37  C   UNL d   1       4.295  52.663 -15.998  0.00  0.00     0.046 A 
ATOM     38  C   UNL d   1       2.931  52.632 -16.248  0.00  0.00     0.032 A 
ENDBRANCH  29  31
ENDBRANCH  10  29
TORSDOF 9
ENDMDL
MODEL 9
REMARK VINA RESULT:      -6.6      3.011      5.219
REMARK  9 active torsions:
REMARK  status: ('A' for Active; 'I' for Inactive)
REMARK    1  A    between atoms: C_2  and  C_3 
REMARK       I    between atoms: C_3  and  N_5 
REMARK    2  A    between atoms: N_5  and  C_7 
REMARK    3  A    between atoms: C_8  and  O_9 
REMARK    4  A    between atoms: O_9  and  C_10 
REMARK    5  A    between atoms: C_10  and  C_11 
REMARK    6  A    between atoms: C_11  and  C_12 
REMARK    7  A    between atoms: C_12  and  N_13 
REMARK    8  A    between atoms: C_26  and  N_27 
REMARK    9  A    between atoms: N_27  and  C_29 
ROOT
ATOM      1  C   UNL d   1      -2.089  51.303 -19.589  0.00  0.00     0.069 A 
ATOM      2  C   UNL d   1      -2.567  50.407 -18.657  0.00  0.00     0.097 A 
ATOM      3  C   UNL d   1      -3.736  49.723 -18.895  0.00  0.00     0.069 A 
ATOM      4  C   UNL d   1      -4.438  49.918 -20.047  0.00  0.00     0.049 A 
ATOM      5  N   UNL d   1      -5.572  49.221 -20.218  0.00  0.00    -0.351 N 
ATOM      6  HN  UNL d   1      -5.901  48.564 -19.510  1.00  0.00     0.166 HD
ATOM      7  C   UNL d   1      -6.258  49.420 -21.355  0.00  0.00     0.182 A 
ATOM      8  N   UNL d   1      -5.866  50.272 -22.315  0.00  0.00    -0.338 N 
ATOM      9  HN  UNL d   1      -6.418  50.393 -23.164  1.00  0.00     0.168 HD
ATOM     10  C   UNL d   1      -4.730  50.962 -22.127  0.00  0.00     0.119 A 
ATOM     11  C   UNL d   1      -3.957  50.822 -20.984  0.00  0.00     0.037 A 
ATOM     12  C   UNL d   1      -2.788  51.526 -20.783  0.00  0.00     0.050 A 
ENDROOT
BRANCH   2  13
ATOM     13  O   UNL d   1      -1.913  50.145 -17.449  0.00  0.00    -0.349 OA
BRANCH  13  14
ATOM     14  C   UNL d   1      -1.097  48.995 -17.283  0.00  0.00     0.177 C 
BRANCH  14  15
ATOM     15  C   UNL d   1       0.154  49.381 -16.549  0.00  0.00     0.057 C 
BRANCH  15  16
ATOM     16  C   UNL d   1      -0.172  50.490 -15.579  0.00  0.00     0.274 C 
BRANCH  16  17
ATOM     17  N   UNL d   1       0.482  50.353 -14.304  0.00  0.00     0.092 N 
ATOM     18  C   UNL d   1       1.387  49.225 -14.263  0.00  0.00     0.298 C 
ATOM     19  C   UNL d   1       2.603  49.561 -13.390  0.00  0.00     0.198 C 
ATOM     20  O   UNL d   1       3.334  50.616 -13.904  0.00  0.00    -0.388 OA
ATOM     21  C   UNL d   1       2.540  51.537 -14.601  0.00  0.00     0.198 C 
ATOM     22  C   UNL d   1       1.190  51.536 -13.933  0.00  0.00     0.298 C 
ENDBRANCH  16  17
ENDBRANCH  15  16
ENDBRANCH  14  15
ENDBRANCH  13  14
ENDBRANCH   2  13
BRANCH   1  23
ATOM     23  N   UNL d   1      -0.873  51.985 -19.298  0.00  0.00    -0.321 N 
ATOM     24  C   UNL d   1       0.419  51.502 -19.617  0.00  0.00     0.245 C 
ATOM     25  O   UNL d   1       0.531  50.397 -20.211  0.00  0.00    -0.268 OA
ATOM     26  HN  UNL d   1      -0.937  52.887 -18.826  1.00  0.00     0.169 HD
BRANCH  24  27
ATOM     27  C   UNL d   1       1.573  52.311 -19.239  0.00  0.00     0.064 C 
ATOM     28  C   UNL d   1       2.021  53.267 -20.037  0.00  0.00     0.017 C 
ENDBRANCH  24  27
ENDBRANCH   1  23
BRANCH  10  29
ATOM     29  N   UNL d   1      -4.321  51.867 -23.148  0.00  0.00    -0.342 N 
ATOM     30  HN  UNL d   1      -4.831  52.737 -23.301  1.00  0.00     0.167 HD
BRANCH  29  31
ATOM     31  C   UNL d   1      -3.185  51.541 -23.957  0.00  0.00     0.035 A 
ATOM     32  C   UNL d   1      -2.275  52.572 -24.170  0.00  0.00     0.056 A 
ATOM     33  C   UNL d   1      -1.156  52.317 -24.944  0.00  0.00     0.074 A 
ATOM     34 CL   UNL d   1       0.048  53.572 -25.264  0.00  0.00    -0.081 Cl
ATOM     35  C   UNL d   1      -0.971  51.049 -25.483  0.00  0.00     0.138 A 
ATOM     36  F   UNL d   1       0.135  50.839 -26.234  0.00  0.00    -0.204 F 
ATOM     37  C   UNL d   1      -1.888  50.061 -25.252  0.00  0.00     0.046 A 
ATOM     38  C   UNL d   1      -3.015  50.296 -24.480  0.00  0.00     0.032 A 
ENDBRANCH  29  31
ENDBRANCH  10  29
TORSDOF 9
ENDMDL
