MODEL 1
REMARK VINA RESULT:      -8.2      0.000      0.000
REMARK  6 active torsions:
REMARK  status: ('A' for Active; 'I' for Inactive)
REMARK    1  A    between atoms: O_2  and  C_3 
REMARK    2  A    between atoms: C_4  and  O_5 
REMARK    3  A    between atoms: O_5  and  C_6 
REMARK    4  A    between atoms: C_6  and  C_7 
REMARK    5  A    between atoms: C_24  and  N_25 
REMARK    6  A    between atoms: N_25  and  C_27 
ROOT
ATOM      1  C   UNL d   1      -0.014  50.342 -14.824  0.00  0.00     0.194 C 
ATOM      2  C   UNL d   1       0.927  49.835 -13.732  0.00  0.00     0.161 C 
ATOM      3  N   UNL d   1       2.238  50.379 -14.023  0.00  0.00    -0.359 N 
ATOM      4  C   UNL d   1       3.391  49.591 -13.660  0.00  0.00     0.152 C 
ATOM      5  C   UNL d   1       2.415  51.660 -14.651  0.00  0.00     0.206 C 
ATOM      6  C   UNL d   1       3.741  52.169 -14.871  0.00  0.00     0.138 C 
ATOM      7  N   UNL d   1       4.835  52.572 -15.039  0.00  0.00    -0.188 NA
ATOM      8  N   UNL d   1       1.350  52.333 -15.010  0.00  0.00    -0.241 N 
ATOM      9  HN  UNL d   1       1.436  53.246 -15.459  1.00  0.00     0.196 HD
ATOM     10  O   UNL d   1       0.098  51.772 -14.764  0.00  0.00    -0.269 OA
ENDROOT
BRANCH   1  11
ATOM     11  C   UNL d   1       0.634  49.951 -16.135  0.00  0.00     0.211 C 
BRANCH  11  12
ATOM     12  O   UNL d   1      -0.293  49.882 -17.199  0.00  0.00    -0.346 OA
BRANCH  12  13
ATOM     13  C   UNL d   1      -0.090  50.608 -18.362  0.00  0.00     0.104 A 
ATOM     14  C   UNL d   1      -0.867  50.264 -19.467  0.00  0.00     0.102 A 
ATOM     15  C   UNL d   1      -0.683  50.976 -20.638  0.00  0.00     0.057 A 
ATOM     16  C   UNL d   1       0.239  52.001 -20.733  0.00  0.00     0.038 A 
ATOM     17  C   UNL d   1       0.415  52.707 -21.909  0.00  0.00     0.119 A 
ATOM     18  C   UNL d   1       1.011  52.344 -19.637  0.00  0.00     0.050 A 
ATOM     19  N   UNL d   1       1.320  53.698 -21.964  0.00  0.00    -0.338 N 
ATOM     20  C   UNL d   1       2.072  54.037 -20.909  0.00  0.00     0.182 A 
ATOM     21  HN  UNL d   1       1.439  54.209 -22.839  1.00  0.00     0.168 HD
ATOM     22  N   UNL d   1       1.890  53.342 -19.770  0.00  0.00    -0.351 N 
ATOM     23  HN  UNL d   1       2.457  53.592 -18.961  1.00  0.00     0.166 HD
ATOM     24  C   UNL d   1       0.819  51.631 -18.478  0.00  0.00     0.070 A 
BRANCH  14  25
ATOM     25  O   UNL d   1      -1.795  49.234 -19.376  0.00  0.00    -0.353 OA
ATOM     26  C   UNL d   1      -1.776  48.224 -20.363  0.00  0.00     0.210 C 
ENDBRANCH  14  25
BRANCH  17  27
ATOM     27  N   UNL d   1      -0.395  52.329 -23.018  0.00  0.00    -0.342 N 
ATOM     28  HN  UNL d   1      -1.373  52.064 -22.899  1.00  0.00     0.167 HD
BRANCH  27  29
ATOM     29  C   UNL d   1       0.230  52.338 -24.306  0.00  0.00     0.035 A 
ATOM     30  C   UNL d   1      -0.290  53.154 -25.309  0.00  0.00     0.055 A 
ATOM     31  C   UNL d   1       0.292  53.186 -26.568  0.00  0.00     0.058 A 
ATOM     32 CL   UNL d   1      -0.338  54.194 -27.836  0.00  0.00    -0.082 Cl
ATOM     33  C   UNL d   1       1.399  52.391 -26.803  0.00  0.00     0.055 A 
ATOM     34 CL   UNL d   1       2.166  52.397 -28.372  0.00  0.00    -0.083 Cl
ATOM     35  C   UNL d   1       1.938  51.568 -25.819  0.00  0.00     0.028 A 
ATOM     36  C   UNL d   1       1.347  51.542 -24.557  0.00  0.00     0.031 A 
ENDBRANCH  27  29
ENDBRANCH  17  27
ENDBRANCH  12  13
ENDBRANCH  11  12
ENDBRANCH   1  11
TORSDOF 6
ENDMDL
MODEL 2
REMARK VINA RESULT:      -7.9      1.665      2.494
REMARK  6 active torsions:
REMARK  status: ('A' for Active; 'I' for Inactive)
REMARK    1  A    between atoms: O_2  and  C_3 
REMARK    2  A    between atoms: C_4  and  O_5 
REMARK    3  A    between atoms: O_5  and  C_6 
REMARK    4  A    between atoms: C_6  and  C_7 
REMARK    5  A    between atoms: C_24  and  N_25 
REMARK    6  A    between atoms: N_25  and  C_27 
ROOT
ATOM      1  C   UNL d   1       0.844  49.910 -15.009  0.00  0.00     0.194 C 
ATOM      2  C   UNL d   1       0.962  50.556 -13.628  0.00  0.00     0.161 C 
ATOM      3  N   UNL d   1      -0.264  51.297 -13.406  0.00  0.00    -0.359 N 
ATOM      4  C   UNL d   1      -0.190  52.499 -12.612  0.00  0.00     0.152 C 
ATOM      5  C   UNL d   1      -1.526  50.872 -13.948  0.00  0.00     0.206 C 
ATOM      6  C   UNL d   1      -2.717  51.622 -13.654  0.00  0.00     0.138 C 
ATOM      7  N   UNL d   1      -3.681  52.246 -13.400  0.00  0.00    -0.188 NA
ATOM      8  N   UNL d   1      -1.555  49.802 -14.703  0.00  0.00    -0.241 N 
ATOM      9  HN  UNL d   1      -2.432  49.469 -15.105  1.00  0.00     0.196 HD
ATOM     10  O   UNL d   1      -0.358  49.128 -14.942  0.00  0.00    -0.269 OA
ENDROOT
BRANCH   1  11
ATOM     11  C   UNL d   1       0.526  51.042 -15.962  0.00  0.00     0.211 C 
BRANCH  11  12
ATOM     12  O   UNL d   1      -0.206  50.612 -17.090  0.00  0.00    -0.346 OA
BRANCH  12  13
ATOM     13  C   UNL d   1       0.007  51.184 -18.335  0.00  0.00     0.104 A 
ATOM     14  C   UNL d   1      -0.750  50.693 -19.396  0.00  0.00     0.102 A 
ATOM     15  C   UNL d   1      -0.554  51.250 -20.646  0.00  0.00     0.057 A 
ATOM     16  C   UNL d   1       0.361  52.264 -20.860  0.00  0.00     0.038 A 
ATOM     17  C   UNL d   1       0.549  52.813 -22.115  0.00  0.00     0.119 A 
ATOM     18  C   UNL d   1       1.114  52.752 -19.807  0.00  0.00     0.050 A 
ATOM     19  N   UNL d   1       1.448  53.798 -22.285  0.00  0.00    -0.338 N 
ATOM     20  C   UNL d   1       2.181  54.277 -21.271  0.00  0.00     0.182 A 
ATOM     21  HN  UNL d   1       1.575  54.192 -23.216  1.00  0.00     0.168 HD
ATOM     22  N   UNL d   1       1.987  53.733 -20.056  0.00  0.00    -0.351 N 
ATOM     23  HN  UNL d   1       2.541  54.090 -19.277  1.00  0.00     0.166 HD
ATOM     24  C   UNL d   1       0.911  52.192 -18.569  0.00  0.00     0.070 A 
BRANCH  14  25
ATOM     25  O   UNL d   1      -1.671  49.675 -19.186  0.00  0.00    -0.353 OA
ATOM     26  C   UNL d   1      -3.042  49.961 -19.369  0.00  0.00     0.210 C 
ENDBRANCH  14  25
BRANCH  17  27
ATOM     27  N   UNL d   1      -0.241  52.288 -23.176  0.00  0.00    -0.342 N 
ATOM     28  HN  UNL d   1      -1.169  51.898 -23.010  1.00  0.00     0.167 HD
BRANCH  27  29
ATOM     29  C   UNL d   1       0.330  52.331 -24.489  0.00  0.00     0.035 A 
ATOM     30  C   UNL d   1      -0.201  53.206 -25.434  0.00  0.00     0.055 A 
ATOM     31  C   UNL d   1       0.329  53.273 -26.714  0.00  0.00     0.058 A 
ATOM     32 CL   UNL d   1      -0.318  54.355 -27.911  0.00  0.00    -0.082 Cl
ATOM     33  C   UNL d   1       1.396  52.453 -27.029  0.00  0.00     0.055 A 
ATOM     34 CL   UNL d   1       2.098  52.502 -28.628  0.00  0.00    -0.083 Cl
ATOM     35  C   UNL d   1       1.947  51.571 -26.104  0.00  0.00     0.028 A 
ATOM     36  C   UNL d   1       1.408  51.511 -24.820  0.00  0.00     0.031 A 
ENDBRANCH  27  29
ENDBRANCH  17  27
ENDBRANCH  12  13
ENDBRANCH  11  12
ENDBRANCH   1  11
TORSDOF 6
ENDMDL
MODEL 3
REMARK VINA RESULT:      -7.8      4.774      8.428
REMARK  6 active torsions:
REMARK  status: ('A' for Active; 'I' for Inactive)
REMARK    1  A    between atoms: O_2  and  C_3 
REMARK    2  A    between atoms: C_4  and  O_5 
REMARK    3  A    between atoms: O_5  and  C_6 
REMARK    4  A    between atoms: C_6  and  C_7 
REMARK    5  A    between atoms: C_24  and  N_25 
REMARK    6  A    between atoms: N_25  and  C_27 
ROOT
ATOM      1  C   UNL d   1      -3.115  47.143 -21.641  0.00  0.00     0.194 C 
ATOM      2  C   UNL d   1      -4.039  48.161 -20.972  0.00  0.00     0.161 C 
ATOM      3  N   UNL d   1      -3.728  49.453 -21.551  0.00  0.00    -0.359 N 
ATOM      4  C   UNL d   1      -3.875  50.619 -20.714  0.00  0.00     0.152 C 
ATOM      5  C   UNL d   1      -3.286  49.597 -22.911  0.00  0.00     0.206 C 
ATOM      6  C   UNL d   1      -3.039  50.909 -23.445  0.00  0.00     0.138 C 
ATOM      7  N   UNL d   1      -2.845  51.991 -23.866  0.00  0.00    -0.188 NA
ATOM      8  N   UNL d   1      -3.119  48.518 -23.633  0.00  0.00    -0.241 N 
ATOM      9  HN  UNL d   1      -2.807  48.580 -24.603  1.00  0.00     0.196 HD
ATOM     10  O   UNL d   1      -3.380  47.281 -23.045  0.00  0.00    -0.269 OA
ENDROOT
BRANCH   1  11
ATOM     11  C   UNL d   1      -1.713  47.679 -21.449  0.00  0.00     0.211 C 
BRANCH  11  12
ATOM     12  O   UNL d   1      -1.377  47.846 -20.087  0.00  0.00    -0.346 OA
BRANCH  12  13
ATOM     13  C   UNL d   1      -0.722  48.989 -19.653  0.00  0.00     0.104 A 
ATOM     14  C   UNL d   1      -0.762  49.262 -18.287  0.00  0.00     0.102 A 
ATOM     15  C   UNL d   1      -0.116  50.395 -17.832  0.00  0.00     0.057 A 
ATOM     16  C   UNL d   1       0.556  51.247 -18.689  0.00  0.00     0.038 A 
ATOM     17  C   UNL d   1       1.200  52.379 -18.223  0.00  0.00     0.119 A 
ATOM     18  C   UNL d   1       0.597  50.978 -20.046  0.00  0.00     0.050 A 
ATOM     19  N   UNL d   1       1.843  53.184 -19.085  0.00  0.00    -0.338 N 
ATOM     20  C   UNL d   1       1.887  52.931 -20.400  0.00  0.00     0.182 A 
ATOM     21  HN  UNL d   1       2.313  54.015 -18.726  1.00  0.00     0.168 HD
ATOM     22  N   UNL d   1       1.257  51.826 -20.839  0.00  0.00    -0.351 N 
ATOM     23  HN  UNL d   1       1.284  51.625 -21.838  1.00  0.00     0.166 HD
ATOM     24  C   UNL d   1      -0.049  49.848 -20.486  0.00  0.00     0.070 A 
BRANCH  14  25
ATOM     25  O   UNL d   1      -1.436  48.408 -17.423  0.00  0.00    -0.353 OA
ATOM     26  C   UNL d   1      -2.774  48.711 -17.087  0.00  0.00     0.210 C 
ENDBRANCH  14  25
BRANCH  17  27
ATOM     27  N   UNL d   1       1.139  52.628 -16.822  0.00  0.00    -0.342 N 
ATOM     28  HN  UNL d   1       0.300  53.007 -16.383  1.00  0.00     0.167 HD
BRANCH  27  29
ATOM     29  C   UNL d   1       2.312  52.319 -16.060  0.00  0.00     0.035 A 
ATOM     30  C   UNL d   1       2.197  51.514 -14.929  0.00  0.00     0.055 A 
ATOM     31  C   UNL d   1       3.313  51.196 -14.170  0.00  0.00     0.058 A 
ATOM     32 CL   UNL d   1       3.195  50.195 -12.753  0.00  0.00    -0.082 Cl
ATOM     33  C   UNL d   1       4.541  51.696 -14.562  0.00  0.00     0.055 A 
ATOM     34 CL   UNL d   1       5.975  51.323 -13.637  0.00  0.00    -0.083 Cl
ATOM     35  C   UNL d   1       4.684  52.502 -15.687  0.00  0.00     0.028 A 
ATOM     36  C   UNL d   1       3.557  52.816 -16.445  0.00  0.00     0.031 A 
ENDBRANCH  27  29
ENDBRANCH  17  27
ENDBRANCH  12  13
ENDBRANCH  11  12
ENDBRANCH   1  11
TORSDOF 6
ENDMDL
MODEL 4
REMARK VINA RESULT:      -7.8      2.156      3.605
REMARK  6 active torsions:
REMARK  status: ('A' for Active; 'I' for Inactive)
REMARK    1  A    between atoms: O_2  and  C_3 
REMARK    2  A    between atoms: C_4  and  O_5 
REMARK    3  A    between atoms: O_5  and  C_6 
REMARK    4  A    between atoms: C_6  and  C_7 
REMARK    5  A    between atoms: C_24  and  N_25 
REMARK    6  A    between atoms: N_25  and  C_27 
ROOT
ATOM      1  C   UNL d   1       0.499  49.324 -15.900  0.00  0.00     0.194 C 
ATOM      2  C   UNL d   1       0.867  49.917 -14.540  0.00  0.00     0.161 C 
ATOM      3  N   UNL d   1      -0.236  50.768 -14.141  0.00  0.00    -0.359 N 
ATOM      4  C   UNL d   1       0.066  51.935 -13.348  0.00  0.00     0.152 C 
ATOM      5  C   UNL d   1      -1.596  50.484 -14.510  0.00  0.00     0.206 C 
ATOM      6  C   UNL d   1      -2.654  51.340 -14.044  0.00  0.00     0.138 C 
ATOM      7  N   UNL d   1      -3.508  52.048 -13.651  0.00  0.00    -0.188 NA
ATOM      8  N   UNL d   1      -1.835  49.444 -15.268  0.00  0.00    -0.241 N 
ATOM      9  HN  UNL d   1      -2.788  49.210 -15.550  1.00  0.00     0.196 HD
ATOM     10  O   UNL d   1      -0.756  48.662 -15.679  0.00  0.00    -0.269 OA
ENDROOT
BRANCH   1  11
ATOM     11  C   UNL d   1       0.170  50.508 -16.784  0.00  0.00     0.211 C 
BRANCH  11  12
ATOM     12  O   UNL d   1       0.910  50.508 -17.987  0.00  0.00    -0.346 OA
BRANCH  12  13
ATOM     13  C   UNL d   1       0.270  50.599 -19.214  0.00  0.00     0.104 A 
ATOM     14  C   UNL d   1       0.406  51.798 -19.912  0.00  0.00     0.102 A 
ATOM     15  C   UNL d   1      -0.223  51.912 -21.137  0.00  0.00     0.057 A 
ATOM     16  C   UNL d   1      -0.971  50.880 -21.673  0.00  0.00     0.038 A 
ATOM     17  C   UNL d   1      -1.597  51.005 -22.900  0.00  0.00     0.119 A 
ATOM     18  C   UNL d   1      -1.108  49.690 -20.981  0.00  0.00     0.050 A 
ATOM     19  N   UNL d   1      -2.316  49.981 -23.390  0.00  0.00    -0.338 N 
ATOM     20  C   UNL d   1      -2.454  48.825 -22.727  0.00  0.00     0.182 A 
ATOM     21  HN  UNL d   1      -2.772  50.089 -24.296  1.00  0.00     0.168 HD
ATOM     22  N   UNL d   1      -1.839  48.718 -21.535  0.00  0.00    -0.351 N 
ATOM     23  HN  UNL d   1      -1.938  47.842 -21.022  1.00  0.00     0.166 HD
ATOM     24  C   UNL d   1      -0.478  49.588 -19.765  0.00  0.00     0.070 A 
BRANCH  14  25
ATOM     25  O   UNL d   1       1.158  52.837 -19.377  0.00  0.00    -0.353 OA
ATOM     26  C   UNL d   1       2.180  53.404 -20.169  0.00  0.00     0.210 C 
ENDBRANCH  14  25
BRANCH  17  27
ATOM     27  N   UNL d   1      -1.437  52.243 -23.585  0.00  0.00    -0.342 N 
ATOM     28  HN  UNL d   1      -1.961  53.075 -23.315  1.00  0.00     0.167 HD
BRANCH  27  29
ATOM     29  C   UNL d   1      -0.505  52.262 -24.672  0.00  0.00     0.035 A 
ATOM     30  C   UNL d   1      -0.727  53.124 -25.745  0.00  0.00     0.055 A 
ATOM     31  C   UNL d   1       0.156  53.167 -26.813  0.00  0.00     0.058 A 
ATOM     32 CL   UNL d   1      -0.100  54.232 -28.163  0.00  0.00    -0.082 Cl
ATOM     33  C   UNL d   1       1.261  52.338 -26.788  0.00  0.00     0.055 A 
ATOM     34 CL   UNL d   1       2.402  52.357 -28.111  0.00  0.00    -0.083 Cl
ATOM     35  C   UNL d   1       1.508  51.468 -25.730  0.00  0.00     0.028 A 
ATOM     36  C   UNL d   1       0.615  51.432 -24.660  0.00  0.00     0.031 A 
ENDBRANCH  27  29
ENDBRANCH  17  27
ENDBRANCH  12  13
ENDBRANCH  11  12
ENDBRANCH   1  11
TORSDOF 6
ENDMDL
MODEL 5
REMARK VINA RESULT:      -7.5      2.973      4.023
REMARK  6 active torsions:
REMARK  status: ('A' for Active; 'I' for Inactive)
REMARK    1  A    between atoms: O_2  and  C_3 
REMARK    2  A    between atoms: C_4  and  O_5 
REMARK    3  A    between atoms: O_5  and  C_6 
REMARK    4  A    between atoms: C_6  and  C_7 
REMARK    5  A    between atoms: C_24  and  N_25 
REMARK    6  A    between atoms: N_25  and  C_27 
ROOT
ATOM      1  C   UNL d   1      -1.626  50.583 -13.577  0.00  0.00     0.194 C 
ATOM      2  C   UNL d   1      -1.133  50.152 -12.195  0.00  0.00     0.161 C 
ATOM      3  N   UNL d   1      -0.791  51.364 -11.476  0.00  0.00    -0.359 N 
ATOM      4  C   UNL d   1       0.287  51.297 -10.519  0.00  0.00     0.152 C 
ATOM      5  C   UNL d   1      -1.486  52.604 -11.689  0.00  0.00     0.206 C 
ATOM      6  C   UNL d   1      -1.133  53.761 -10.911  0.00  0.00     0.138 C 
ATOM      7  N   UNL d   1      -0.834  54.696 -10.262  0.00  0.00    -0.188 NA
ATOM      8  N   UNL d   1      -2.429  52.645 -12.596  0.00  0.00    -0.241 N 
ATOM      9  HN  UNL d   1      -2.945  53.508 -12.775  1.00  0.00     0.196 HD
ATOM     10  O   UNL d   1      -2.713  51.482 -13.309  0.00  0.00    -0.269 OA
ENDROOT
BRANCH   1  11
ATOM     11  C   UNL d   1      -0.527  51.452 -14.148  0.00  0.00     0.211 C 
BRANCH  11  12
ATOM     12  O   UNL d   1       0.394  50.718 -14.929  0.00  0.00    -0.346 OA
BRANCH  12  13
ATOM     13  C   UNL d   1       0.446  50.883 -16.305  0.00  0.00     0.104 A 
ATOM     14  C   UNL d   1      -0.238  49.950 -17.081  0.00  0.00     0.102 A 
ATOM     15  C   UNL d   1      -0.200  50.094 -18.455  0.00  0.00     0.057 A 
ATOM     16  C   UNL d   1       0.490  51.127 -19.062  0.00  0.00     0.038 A 
ATOM     17  C   UNL d   1       0.521  51.263 -20.438  0.00  0.00     0.119 A 
ATOM     18  C   UNL d   1       1.169  52.055 -18.293  0.00  0.00     0.050 A 
ATOM     19  N   UNL d   1       1.202  52.280 -20.994  0.00  0.00    -0.338 N 
ATOM     20  C   UNL d   1       1.863  53.183 -20.257  0.00  0.00     0.182 A 
ATOM     21  HN  UNL d   1       1.216  52.366 -22.010  1.00  0.00     0.168 HD
ATOM     22  N   UNL d   1       1.823  53.038 -18.919  0.00  0.00    -0.351 N 
ATOM     23  HN  UNL d   1       2.323  53.720 -18.349  1.00  0.00     0.166 HD
ATOM     24  C   UNL d   1       1.124  51.901 -16.929  0.00  0.00     0.070 A 
BRANCH  14  25
ATOM     25  O   UNL d   1      -0.932  48.910 -16.475  0.00  0.00    -0.353 OA
ATOM     26  C   UNL d   1      -1.783  48.115 -17.274  0.00  0.00     0.210 C 
ENDBRANCH  14  25
BRANCH  17  27
ATOM     27  N   UNL d   1      -0.188  50.292 -21.201  0.00  0.00    -0.342 N 
ATOM     28  HN  UNL d   1       0.136  49.327 -21.270  1.00  0.00     0.167 HD
BRANCH  27  29
ATOM     29  C   UNL d   1      -1.376  50.735 -21.865  0.00  0.00     0.035 A 
ATOM     30  C   UNL d   1      -1.285  51.235 -23.163  0.00  0.00     0.055 A 
ATOM     31  C   UNL d   1      -2.417  51.673 -23.834  0.00  0.00     0.058 A 
ATOM     32 CL   UNL d   1      -2.329  52.303 -25.452  0.00  0.00    -0.082 Cl
ATOM     33  C   UNL d   1      -3.636  51.599 -23.187  0.00  0.00     0.055 A 
ATOM     34 CL   UNL d   1      -5.090  52.138 -23.992  0.00  0.00    -0.083 Cl
ATOM     35  C   UNL d   1      -3.757  51.103 -21.892  0.00  0.00     0.028 A 
ATOM     36  C   UNL d   1      -2.613  50.666 -21.225  0.00  0.00     0.031 A 
ENDBRANCH  27  29
ENDBRANCH  17  27
ENDBRANCH  12  13
ENDBRANCH  11  12
ENDBRANCH   1  11
TORSDOF 6
ENDMDL
MODEL 6
REMARK VINA RESULT:      -7.5      2.150      2.979
REMARK  6 active torsions:
REMARK  status: ('A' for Active; 'I' for Inactive)
REMARK    1  A    between atoms: O_2  and  C_3 
REMARK    2  A    between atoms: C_4  and  O_5 
REMARK    3  A    between atoms: O_5  and  C_6 
REMARK    4  A    between atoms: C_6  and  C_7 
REMARK    5  A    between atoms: C_24  and  N_25 
REMARK    6  A    between atoms: N_25  and  C_27 
ROOT
ATOM      1  C   UNL d   1      -1.059  50.384 -15.645  0.00  0.00     0.194 C 
ATOM      2  C   UNL d   1      -1.921  50.148 -14.404  0.00  0.00     0.161 C 
ATOM      3  N   UNL d   1      -2.006  48.713 -14.221  0.00  0.00    -0.359 N 
ATOM      4  C   UNL d   1      -3.216  48.178 -13.646  0.00  0.00     0.152 C 
ATOM      5  C   UNL d   1      -0.935  47.828 -14.590  0.00  0.00     0.206 C 
ATOM      6  C   UNL d   1      -1.058  46.417 -14.338  0.00  0.00     0.138 C 
ATOM      7  N   UNL d   1      -1.175  45.266 -14.122  0.00  0.00    -0.188 NA
ATOM      8  N   UNL d   1       0.133  48.337 -15.150  0.00  0.00    -0.241 N 
ATOM      9  HN  UNL d   1       0.915  47.740 -15.425  1.00  0.00     0.196 HD
ATOM     10  O   UNL d   1       0.178  49.714 -15.360  0.00  0.00    -0.269 OA
ENDROOT
BRANCH   1  11
ATOM     11  C   UNL d   1      -1.703  49.572 -16.748  0.00  0.00     0.211 C 
BRANCH  11  12
ATOM     12  O   UNL d   1      -0.787  49.210 -17.760  0.00  0.00    -0.346 OA
BRANCH  12  13
ATOM     13  C   UNL d   1      -0.504  50.079 -18.804  0.00  0.00     0.104 A 
ATOM     14  C   UNL d   1      -1.250  49.929 -19.972  0.00  0.00     0.102 A 
ATOM     15  C   UNL d   1      -0.987  50.784 -21.026  0.00  0.00     0.057 A 
ATOM     16  C   UNL d   1      -0.016  51.765 -20.945  0.00  0.00     0.038 A 
ATOM     17  C   UNL d   1       0.240  52.615 -22.005  0.00  0.00     0.119 A 
ATOM     18  C   UNL d   1       0.726  51.915 -19.787  0.00  0.00     0.050 A 
ATOM     19  N   UNL d   1       1.191  53.558 -21.891  0.00  0.00    -0.338 N 
ATOM     20  C   UNL d   1       1.914  53.710 -20.774  0.00  0.00     0.182 A 
ATOM     21  HN  UNL d   1       1.368  54.177 -22.682  1.00  0.00     0.168 HD
ATOM     22  N   UNL d   1       1.654  52.876 -19.750  0.00  0.00    -0.351 N 
ATOM     23  HN  UNL d   1       2.199  52.983 -18.895  1.00  0.00     0.166 HD
ATOM     24  C   UNL d   1       0.455  51.060 -18.746  0.00  0.00     0.070 A 
BRANCH  14  25
ATOM     25  O   UNL d   1      -2.227  48.945 -20.057  0.00  0.00    -0.353 OA
ATOM     26  C   UNL d   1      -2.446  48.321 -21.305  0.00  0.00     0.210 C 
ENDBRANCH  14  25
BRANCH  17  27
ATOM     27  N   UNL d   1      -0.540  52.434 -23.183  0.00  0.00    -0.342 N 
ATOM     28  HN  UNL d   1      -1.555  52.340 -23.142  1.00  0.00     0.167 HD
BRANCH  27  29
ATOM     29  C   UNL d   1       0.169  52.391 -24.426  0.00  0.00     0.035 A 
ATOM     30  C   UNL d   1      -0.257  53.195 -25.482  0.00  0.00     0.055 A 
ATOM     31  C   UNL d   1       0.408  53.177 -26.699  0.00  0.00     0.058 A 
ATOM     32 CL   UNL d   1      -0.105  54.169 -28.031  0.00  0.00    -0.082 Cl
ATOM     33  C   UNL d   1       1.502  52.344 -26.840  0.00  0.00     0.055 A 
ATOM     34 CL   UNL d   1       2.371  52.286 -28.354  0.00  0.00    -0.083 Cl
ATOM     35  C   UNL d   1       1.949  51.531 -25.802  0.00  0.00     0.028 A 
ATOM     36  C   UNL d   1       1.275  51.556 -24.583  0.00  0.00     0.031 A 
ENDBRANCH  27  29
ENDBRANCH  17  27
ENDBRANCH  12  13
ENDBRANCH  11  12
ENDBRANCH   1  11
TORSDOF 6
ENDMDL
MODEL 7
REMARK VINA RESULT:      -7.5      3.116      4.640
REMARK  6 active torsions:
REMARK  status: ('A' for Active; 'I' for Inactive)
REMARK    1  A    between atoms: O_2  and  C_3 
REMARK    2  A    between atoms: C_4  and  O_5 
REMARK    3  A    between atoms: O_5  and  C_6 
REMARK    4  A    between atoms: C_6  and  C_7 
REMARK    5  A    between atoms: C_24  and  N_25 
REMARK    6  A    between atoms: N_25  and  C_27 
ROOT
ATOM      1  C   UNL d   1       0.190  51.991 -12.485  0.00  0.00     0.194 C 
ATOM      2  C   UNL d   1      -0.918  52.703 -11.709  0.00  0.00     0.161 C 
ATOM      3  N   UNL d   1      -2.125  51.923 -11.891  0.00  0.00    -0.359 N 
ATOM      4  C   UNL d   1      -3.385  52.626 -11.910  0.00  0.00     0.152 C 
ATOM      5  C   UNL d   1      -2.099  50.495 -12.051  0.00  0.00     0.206 C 
ATOM      6  C   UNL d   1      -3.334  49.769 -12.179  0.00  0.00     0.138 C 
ATOM      7  N   UNL d   1      -4.354  49.192 -12.280  0.00  0.00    -0.188 NA
ATOM      8  N   UNL d   1      -0.938  49.889 -12.075  0.00  0.00    -0.241 N 
ATOM      9  HN  UNL d   1      -0.879  48.876 -12.186  1.00  0.00     0.196 HD
ATOM     10  O   UNL d   1       0.215  50.662 -11.944  0.00  0.00    -0.269 OA
ENDROOT
BRANCH   1  11
ATOM     11  C   UNL d   1      -0.338  51.833 -13.895  0.00  0.00     0.211 C 
BRANCH  11  12
ATOM     12  O   UNL d   1       0.418  50.915 -14.657  0.00  0.00    -0.346 OA
BRANCH  12  13
ATOM     13  C   UNL d   1       0.465  51.011 -16.040  0.00  0.00     0.104 A 
ATOM     14  C   UNL d   1      -0.246  50.057 -16.766  0.00  0.00     0.102 A 
ATOM     15  C   UNL d   1      -0.213  50.134 -18.145  0.00  0.00     0.057 A 
ATOM     16  C   UNL d   1       0.497  51.119 -18.806  0.00  0.00     0.038 A 
ATOM     17  C   UNL d   1       0.523  51.187 -20.187  0.00  0.00     0.119 A 
ATOM     18  C   UNL d   1       1.203  52.067 -18.087  0.00  0.00     0.050 A 
ATOM     19  N   UNL d   1       1.224  52.158 -20.795  0.00  0.00    -0.338 N 
ATOM     20  C   UNL d   1       1.910  53.080 -20.107  0.00  0.00     0.182 A 
ATOM     21  HN  UNL d   1       1.233  52.194 -21.814  1.00  0.00     0.168 HD
ATOM     22  N   UNL d   1       1.876  53.002 -18.764  0.00  0.00    -0.351 N 
ATOM     23  HN  UNL d   1       2.395  53.699 -18.230  1.00  0.00     0.166 HD
ATOM     24  C   UNL d   1       1.163  51.981 -16.716  0.00  0.00     0.070 A 
BRANCH  14  25
ATOM     25  O   UNL d   1      -0.961  49.066 -16.106  0.00  0.00    -0.353 OA
ATOM     26  C   UNL d   1      -2.334  49.281 -15.855  0.00  0.00     0.210 C 
ENDBRANCH  14  25
BRANCH  17  27
ATOM     27  N   UNL d   1      -0.214  50.196 -20.897  0.00  0.00    -0.342 N 
ATOM     28  HN  UNL d   1       0.089  49.222 -20.925  1.00  0.00     0.167 HD
BRANCH  27  29
ATOM     29  C   UNL d   1      -1.400  50.633 -21.570  0.00  0.00     0.035 A 
ATOM     30  C   UNL d   1      -1.286  51.299 -22.789  0.00  0.00     0.055 A 
ATOM     31  C   UNL d   1      -2.415  51.736 -23.466  0.00  0.00     0.058 A 
ATOM     32 CL   UNL d   1      -2.298  52.570 -24.987  0.00  0.00    -0.082 Cl
ATOM     33  C   UNL d   1      -3.655  51.493 -22.905  0.00  0.00     0.055 A 
ATOM     34 CL   UNL d   1      -5.105  52.024 -23.720  0.00  0.00    -0.083 Cl
ATOM     35  C   UNL d   1      -3.798  50.830 -21.689  0.00  0.00     0.028 A 
ATOM     36  C   UNL d   1      -2.658  50.395 -21.016  0.00  0.00     0.031 A 
ENDBRANCH  27  29
ENDBRANCH  17  27
ENDBRANCH  12  13
ENDBRANCH  11  12
ENDBRANCH   1  11
TORSDOF 6
ENDMDL
MODEL 8
REMARK VINA RESULT:      -7.3      3.552      5.244
REMARK  6 active torsions:
REMARK  status: ('A' for Active; 'I' for Inactive)
REMARK    1  A    between atoms: O_2  and  C_3 
REMARK    2  A    between atoms: C_4  and  O_5 
REMARK    3  A    between atoms: O_5  and  C_6 
REMARK    4  A    between atoms: C_6  and  C_7 
REMARK    5  A    between atoms: C_24  and  N_25 
REMARK    6  A    between atoms: N_25  and  C_27 
ROOT
ATOM      1  C   UNL d   1      -0.787  51.845 -12.297  0.00  0.00     0.194 C 
ATOM      2  C   UNL d   1      -1.607  52.849 -11.486  0.00  0.00     0.161 C 
ATOM      3  N   UNL d   1      -2.912  52.254 -11.280  0.00  0.00    -0.359 N 
ATOM      4  C   UNL d   1      -4.050  53.138 -11.204  0.00  0.00     0.152 C 
ATOM      5  C   UNL d   1      -3.096  50.835 -11.152  0.00  0.00     0.206 C 
ATOM      6  C   UNL d   1      -4.410  50.307 -10.899  0.00  0.00     0.138 C 
ATOM      7  N   UNL d   1      -5.492  49.893 -10.690  0.00  0.00    -0.188 NA
ATOM      8  N   UNL d   1      -2.052  50.055 -11.270  0.00  0.00    -0.241 N 
ATOM      9  HN  UNL d   1      -2.143  49.041 -11.185  1.00  0.00     0.196 HD
ATOM     10  O   UNL d   1      -0.811  50.642 -11.514  0.00  0.00    -0.269 OA
ENDROOT
BRANCH   1  11
ATOM     11  C   UNL d   1      -1.619  51.535 -13.523  0.00  0.00     0.211 C 
BRANCH  11  12
ATOM     12  O   UNL d   1      -1.117  50.437 -14.255  0.00  0.00    -0.346 OA
BRANCH  12  13
ATOM     13  C   UNL d   1      -1.196  50.413 -15.640  0.00  0.00     0.104 A 
ATOM     14  C   UNL d   1       0.007  50.373 -16.342  0.00  0.00     0.102 A 
ATOM     15  C   UNL d   1      -0.048  50.348 -17.723  0.00  0.00     0.057 A 
ATOM     16  C   UNL d   1      -1.249  50.362 -18.408  0.00  0.00     0.038 A 
ATOM     17  C   UNL d   1      -1.292  50.337 -19.790  0.00  0.00     0.119 A 
ATOM     18  C   UNL d   1      -2.444  50.402 -17.712  0.00  0.00     0.050 A 
ATOM     19  N   UNL d   1      -2.478  50.352 -20.421  0.00  0.00    -0.338 N 
ATOM     20  C   UNL d   1      -3.640  50.390 -19.756  0.00  0.00     0.182 A 
ATOM     21  HN  UNL d   1      -2.493  50.333 -21.441  1.00  0.00     0.168 HD
ATOM     22  N   UNL d   1      -3.583  50.415 -18.411  0.00  0.00    -0.351 N 
ATOM     23  HN  UNL d   1      -4.462  50.444 -17.895  1.00  0.00     0.166 HD
ATOM     24  C   UNL d   1      -2.378  50.426 -16.340  0.00  0.00     0.070 A 
BRANCH  14  25
ATOM     25  O   UNL d   1       1.216  50.358 -15.659  0.00  0.00    -0.353 OA
ATOM     26  C   UNL d   1       1.882  51.585 -15.445  0.00  0.00     0.210 C 
ENDBRANCH  14  25
BRANCH  17  27
ATOM     27  N   UNL d   1      -0.045  50.296 -20.475  0.00  0.00    -0.342 N 
ATOM     28  HN  UNL d   1       0.588  49.500 -20.388  1.00  0.00     0.167 HD
BRANCH  27  29
ATOM     29  C   UNL d   1       0.279  51.427 -21.293  0.00  0.00     0.035 A 
ATOM     30  C   UNL d   1      -0.127  51.442 -22.626  0.00  0.00     0.055 A 
ATOM     31  C   UNL d   1       0.171  52.521 -23.444  0.00  0.00     0.058 A 
ATOM     32 CL   UNL d   1      -0.323  52.563 -25.111  0.00  0.00    -0.082 Cl
ATOM     33  C   UNL d   1       0.878  53.580 -22.907  0.00  0.00     0.055 A 
ATOM     34 CL   UNL d   1       1.276  54.962 -23.898  0.00  0.00    -0.083 Cl
ATOM     35  C   UNL d   1       1.295  53.592 -21.579  0.00  0.00     0.028 A 
ATOM     36  C   UNL d   1       0.991  52.503 -20.764  0.00  0.00     0.031 A 
ENDBRANCH  27  29
ENDBRANCH  17  27
ENDBRANCH  12  13
ENDBRANCH  11  12
ENDBRANCH   1  11
TORSDOF 6
ENDMDL
MODEL 9
REMARK VINA RESULT:      -7.3      2.826      3.337
REMARK  6 active torsions:
REMARK  status: ('A' for Active; 'I' for Inactive)
REMARK    1  A    between atoms: O_2  and  C_3 
REMARK    2  A    between atoms: C_4  and  O_5 
REMARK    3  A    between atoms: O_5  and  C_6 
REMARK    4  A    between atoms: C_6  and  C_7 
REMARK    5  A    between atoms: C_24  and  N_25 
REMARK    6  A    between atoms: N_25  and  C_27 
ROOT
ATOM      1  C   UNL d   1       0.310  50.298 -14.565  0.00  0.00     0.194 C 
ATOM      2  C   UNL d   1       1.348  50.017 -13.478  0.00  0.00     0.161 C 
ATOM      3  N   UNL d   1       2.602  50.575 -13.942  0.00  0.00    -0.359 N 
ATOM      4  C   UNL d   1       3.822  49.914 -13.545  0.00  0.00     0.152 C 
ATOM      5  C   UNL d   1       2.659  51.749 -14.770  0.00  0.00     0.206 C 
ATOM      6  C   UNL d   1       3.936  52.285 -15.159  0.00  0.00     0.138 C 
ATOM      7  N   UNL d   1       4.989  52.712 -15.465  0.00  0.00    -0.188 NA
ATOM      8  N   UNL d   1       1.535  52.302 -15.151  0.00  0.00    -0.241 N 
ATOM      9  HN  UNL d   1       1.536  53.136 -15.739  1.00  0.00     0.196 HD
ATOM     10  O   UNL d   1       0.338  51.723 -14.732  0.00  0.00    -0.269 OA
ENDROOT
BRANCH   1  11
ATOM     11  C   UNL d   1       0.898  49.739 -15.843  0.00  0.00     0.211 C 
BRANCH  11  12
ATOM     12  O   UNL d   1      -0.081  49.511 -16.835  0.00  0.00    -0.346 OA
BRANCH  12  13
ATOM     13  C   UNL d   1       0.013  50.122 -18.077  0.00  0.00     0.104 A 
ATOM     14  C   UNL d   1      -0.436  49.394 -19.177  0.00  0.00     0.102 A 
ATOM     15  C   UNL d   1      -0.353  49.983 -20.424  0.00  0.00     0.057 A 
ATOM     16  C   UNL d   1       0.158  51.256 -20.598  0.00  0.00     0.038 A 
ATOM     17  C   UNL d   1       0.237  51.837 -21.851  0.00  0.00     0.119 A 
ATOM     18  C   UNL d   1       0.605  51.981 -19.507  0.00  0.00     0.050 A 
ATOM     19  N   UNL d   1       0.739  53.076 -21.982  0.00  0.00    -0.338 N 
ATOM     20  C   UNL d   1       1.174  53.784 -20.932  0.00  0.00     0.182 A 
ATOM     21  HN  UNL d   1       0.791  53.490 -22.913  1.00  0.00     0.168 HD
ATOM     22  N   UNL d   1       1.091  53.207 -19.719  0.00  0.00    -0.351 N 
ATOM     23  HN  UNL d   1       1.419  53.738 -18.912  1.00  0.00     0.166 HD
ATOM     24  C   UNL d   1       0.516  51.385 -18.272  0.00  0.00     0.070 A 
BRANCH  14  25
ATOM     25  O   UNL d   1      -0.950  48.115 -19.006  0.00  0.00    -0.353 OA
ATOM     26  C   UNL d   1      -2.130  47.767 -19.700  0.00  0.00     0.210 C 
ENDBRANCH  14  25
BRANCH  17  27
ATOM     27  N   UNL d   1      -0.230  51.064 -22.952  0.00  0.00    -0.342 N 
ATOM     28  HN  UNL d   1       0.415  50.627 -23.610  1.00  0.00     0.167 HD
BRANCH  27  29
ATOM     29  C   UNL d   1      -1.649  50.933 -23.092  0.00  0.00     0.035 A 
ATOM     30  C   UNL d   1      -2.215  49.659 -23.124  0.00  0.00     0.055 A 
ATOM     31  C   UNL d   1      -3.586  49.497 -23.258  0.00  0.00     0.058 A 
ATOM     32 CL   UNL d   1      -4.315  47.920 -23.302  0.00  0.00    -0.082 Cl
ATOM     33  C   UNL d   1      -4.376  50.627 -23.358  0.00  0.00     0.055 A 
ATOM     34 CL   UNL d   1      -6.108  50.473 -23.529  0.00  0.00    -0.083 Cl
ATOM     35  C   UNL d   1      -3.838  51.910 -23.328  0.00  0.00     0.028 A 
ATOM     36  C   UNL d   1      -2.459  52.063 -23.193  0.00  0.00     0.031 A 
ENDBRANCH  27  29
ENDBRANCH  17  27
ENDBRANCH  12  13
ENDBRANCH  11  12
ENDBRANCH   1  11
TORSDOF 6
ENDMDL
