MODEL 1
REMARK VINA RESULT:      -7.3      0.000      0.000
REMARK  7 active torsions:
REMARK  status: ('A' for Active; 'I' for Inactive)
REMARK    1  A    between atoms: O_2  and  C_3 
REMARK    2  A    between atoms: C_8  and  N_9 
REMARK       I    between atoms: N_9  and  C_11 
REMARK    3  A    between atoms: C_11  and  C_13 
REMARK    4  A    between atoms: C_14  and  C_15 
REMARK    5  A    between atoms: C_15  and  N_16 
REMARK    6  A    between atoms: C_19  and  N_20 
REMARK    7  A    between atoms: N_20  and  C_22 
ROOT
ATOM      1  C   UNL d   1       0.180  50.724 -18.451  0.00  0.00     0.097 A 
ATOM      2  C   UNL d   1       1.004  51.831 -18.621  0.00  0.00     0.069 A 
ATOM      3  C   UNL d   1       1.072  52.459 -19.829  0.00  0.00     0.049 A 
ATOM      4  C   UNL d   1       0.314  51.988 -20.884  0.00  0.00     0.037 A 
ATOM      5  C   UNL d   1      -0.514  50.886 -20.731  0.00  0.00     0.050 A 
ATOM      6  C   UNL d   1      -0.580  50.250 -19.503  0.00  0.00     0.070 A 
ATOM      7  C   UNL d   1       0.430  52.655 -22.087  0.00  0.00     0.119 A 
ATOM      8  N   UNL d   1       1.262  53.727 -22.193  0.00  0.00    -0.338 N 
ATOM      9  HN  UNL d   1       1.340  54.211 -23.087  1.00  0.00     0.168 HD
ATOM     10  C   UNL d   1       1.985  54.159 -21.145  0.00  0.00     0.182 A 
ATOM     11  N   UNL d   1       1.886  53.518 -19.960  0.00  0.00    -0.351 N 
ATOM     12  HN  UNL d   1       2.431  53.842 -19.161  1.00  0.00     0.166 HD
ENDROOT
BRANCH   6  13
ATOM     13  N   UNL d   1      -1.404  49.111 -19.267  0.00  0.00    -0.314 N 
ATOM     14  C   UNL d   1      -2.791  49.248 -18.951  0.00  0.00     0.301 C 
ATOM     15  O   UNL d   1      -3.377  50.357 -18.891  0.00  0.00    -0.258 OA
ATOM     16  HN  UNL d   1      -0.996  48.179 -19.324  1.00  0.00     0.170 HD
BRANCH  14  17
ATOM     17  C   UNL d   1      -3.546  48.049 -18.689  0.00  0.00    -0.004 C 
ATOM     18  C   UNL d   1      -4.208  47.039 -18.469  0.00  0.00    -0.066 C 
BRANCH  18  19
ATOM     19  C   UNL d   1      -4.975  45.820 -18.207  0.00  0.00     0.365 C 
BRANCH  19  20
ATOM     20  N   UNL d   1      -4.137  44.671 -18.482  0.00  0.00     0.090 N 
ATOM     21  C   UNL d   1      -4.857  43.494 -18.032  0.00  0.00     0.310 C 
ATOM     22  C   UNL d   1      -3.985  44.573 -19.920  0.00  0.00     0.310 C 
ENDBRANCH  19  20
ENDBRANCH  18  19
ENDBRANCH  14  17
ENDBRANCH   6  13
BRANCH   1  23
ATOM     23  O   UNL d   1       0.121  50.097 -17.220  0.00  0.00    -0.354 OA
ATOM     24  C   UNL d   1       1.030  50.446 -16.200  0.00  0.00     0.210 C 
ENDBRANCH   1  23
BRANCH   7  25
ATOM     25  N   UNL d   1      -0.333  52.235 -23.238  0.00  0.00    -0.342 N 
ATOM     26  HN  UNL d   1      -1.274  51.859 -23.120  1.00  0.00     0.167 HD
BRANCH  25  27
ATOM     27  C   UNL d   1       0.243  52.348 -24.555  0.00  0.00     0.035 A 
ATOM     28  C   UNL d   1      -0.261  53.183 -25.513  0.00  0.00     0.056 A 
ATOM     29  C   UNL d   1       0.360  53.204 -26.749  0.00  0.00     0.074 A 
ATOM     30 CL   UNL d   1      -0.241  54.254 -28.013  0.00  0.00    -0.081 Cl
ATOM     31  C   UNL d   1       1.455  52.422 -27.046  0.00  0.00     0.138 A 
ATOM     32  F   UNL d   1       2.058  52.450 -28.279  0.00  0.00    -0.204 F 
ATOM     33  C   UNL d   1       1.958  51.581 -26.072  0.00  0.00     0.046 A 
ATOM     34  C   UNL d   1       1.342  51.567 -24.859  0.00  0.00     0.032 A 
ENDBRANCH  25  27
ENDBRANCH   7  25
TORSDOF 7
ENDMDL
MODEL 2
REMARK VINA RESULT:      -7.1      2.620      5.706
REMARK  7 active torsions:
REMARK  status: ('A' for Active; 'I' for Inactive)
REMARK    1  A    between atoms: O_2  and  C_3 
REMARK    2  A    between atoms: C_8  and  N_9 
REMARK       I    between atoms: N_9  and  C_11 
REMARK    3  A    between atoms: C_11  and  C_13 
REMARK    4  A    between atoms: C_14  and  C_15 
REMARK    5  A    between atoms: C_15  and  N_16 
REMARK    6  A    between atoms: C_19  and  N_20 
REMARK    7  A    between atoms: N_20  and  C_22 
ROOT
ATOM      1  C   UNL d   1      -1.064  49.423 -19.159  0.00  0.00     0.097 A 
ATOM      2  C   UNL d   1      -2.000  49.103 -20.137  0.00  0.00     0.069 A 
ATOM      3  C   UNL d   1      -1.981  49.740 -21.341  0.00  0.00     0.049 A 
ATOM      4  C   UNL d   1      -1.024  50.707 -21.584  0.00  0.00     0.037 A 
ATOM      5  C   UNL d   1      -0.083  51.036 -20.620  0.00  0.00     0.050 A 
ATOM      6  C   UNL d   1      -0.106  50.388 -19.398  0.00  0.00     0.070 A 
ATOM      7  C   UNL d   1      -1.057  51.327 -22.817  0.00  0.00     0.119 A 
ATOM      8  N   UNL d   1      -2.006  50.977 -23.729  0.00  0.00    -0.338 N 
ATOM      9  HN  UNL d   1      -2.021  51.443 -24.636  1.00  0.00     0.168 HD
ATOM     10  C   UNL d   1      -2.922  50.032 -23.459  0.00  0.00     0.182 A 
ATOM     11  N   UNL d   1      -2.905  49.413 -22.258  0.00  0.00    -0.351 N 
ATOM     12  HN  UNL d   1      -3.598  48.694 -22.047  1.00  0.00     0.166 HD
ENDROOT
BRANCH   6  13
ATOM     13  N   UNL d   1       0.825  50.672 -18.356  0.00  0.00    -0.314 N 
ATOM     14  C   UNL d   1       1.243  52.010 -18.075  0.00  0.00     0.301 C 
ATOM     15  O   UNL d   1       0.804  53.012 -18.692  0.00  0.00    -0.258 OA
ATOM     16  HN  UNL d   1       1.201  49.906 -17.799  1.00  0.00     0.170 HD
BRANCH  14  17
ATOM     17  C   UNL d   1       2.215  52.209 -17.030  0.00  0.00    -0.004 C 
ATOM     18  C   UNL d   1       3.044  52.399 -16.145  0.00  0.00    -0.066 C 
BRANCH  18  19
ATOM     19  C   UNL d   1       4.029  52.603 -15.081  0.00  0.00     0.365 C 
BRANCH  19  20
ATOM     20  N   UNL d   1       4.072  51.417 -14.250  0.00  0.00     0.090 N 
ATOM     21  C   UNL d   1       5.411  51.324 -13.700  0.00  0.00     0.310 C 
ATOM     22  C   UNL d   1       3.155  51.623 -13.147  0.00  0.00     0.310 C 
ENDBRANCH  19  20
ENDBRANCH  18  19
ENDBRANCH  14  17
ENDBRANCH   6  13
BRANCH   1  23
ATOM     23  O   UNL d   1      -1.096  48.769 -17.941  0.00  0.00    -0.354 OA
ATOM     24  C   UNL d   1      -2.160  48.989 -17.042  0.00  0.00     0.210 C 
ENDBRANCH   1  23
BRANCH   7  25
ATOM     25  N   UNL d   1      -0.089  52.342 -23.157  0.00  0.00    -0.342 N 
ATOM     26  HN  UNL d   1       0.251  52.986 -22.443  1.00  0.00     0.167 HD
BRANCH  25  27
ATOM     27  C   UNL d   1       0.396  52.439 -24.512  0.00  0.00     0.035 A 
ATOM     28  C   UNL d   1      -0.109  53.332 -25.415  0.00  0.00     0.056 A 
ATOM     29  C   UNL d   1       0.419  53.332 -26.694  0.00  0.00     0.074 A 
ATOM     30 CL   UNL d   1      -0.188  54.454 -27.892  0.00  0.00    -0.081 Cl
ATOM     31  C   UNL d   1       1.423  52.473 -27.086  0.00  0.00     0.138 A 
ATOM     32  F   UNL d   1       1.934  52.482 -28.360  0.00  0.00    -0.204 F 
ATOM     33  C   UNL d   1       1.928  51.575 -26.166  0.00  0.00     0.046 A 
ATOM     34  C   UNL d   1       1.404  51.581 -24.910  0.00  0.00     0.032 A 
ENDBRANCH  25  27
ENDBRANCH   7  25
TORSDOF 7
ENDMDL
MODEL 3
REMARK VINA RESULT:      -7.1      3.160      3.666
REMARK  7 active torsions:
REMARK  status: ('A' for Active; 'I' for Inactive)
REMARK    1  A    between atoms: O_2  and  C_3 
REMARK    2  A    between atoms: C_8  and  N_9 
REMARK       I    between atoms: N_9  and  C_11 
REMARK    3  A    between atoms: C_11  and  C_13 
REMARK    4  A    between atoms: C_14  and  C_15 
REMARK    5  A    between atoms: C_15  and  N_16 
REMARK    6  A    between atoms: C_19  and  N_20 
REMARK    7  A    between atoms: N_20  and  C_22 
ROOT
ATOM      1  C   UNL d   1       0.909  51.097 -17.384  0.00  0.00     0.097 A 
ATOM      2  C   UNL d   1       1.348  52.259 -18.008  0.00  0.00     0.069 A 
ATOM      3  C   UNL d   1       1.111  52.459 -19.335  0.00  0.00     0.049 A 
ATOM      4  C   UNL d   1       0.428  51.498 -20.056  0.00  0.00     0.037 A 
ATOM      5  C   UNL d   1      -0.019  50.335 -19.448  0.00  0.00     0.050 A 
ATOM      6  C   UNL d   1       0.225  50.134 -18.100  0.00  0.00     0.070 A 
ATOM      7  C   UNL d   1       0.224  51.748 -21.398  0.00  0.00     0.119 A 
ATOM      8  N   UNL d   1       0.689  52.901 -21.954  0.00  0.00    -0.338 N 
ATOM      9  HN  UNL d   1       0.533  53.074 -22.947  1.00  0.00     0.168 HD
ATOM     10  C   UNL d   1       1.349  53.815 -21.222  0.00  0.00     0.182 A 
ATOM     11  N   UNL d   1       1.558  53.588 -19.907  0.00  0.00    -0.351 N 
ATOM     12  HN  UNL d   1       2.058  54.278 -19.346  1.00  0.00     0.166 HD
ENDROOT
BRANCH   6  13
ATOM     13  N   UNL d   1      -0.199  48.964 -17.405  0.00  0.00    -0.314 N 
ATOM     14  C   UNL d   1      -1.490  48.886 -16.797  0.00  0.00     0.301 C 
ATOM     15  O   UNL d   1      -2.337  49.811 -16.858  0.00  0.00    -0.258 OA
ATOM     16  HN  UNL d   1       0.432  48.166 -17.339  1.00  0.00     0.170 HD
BRANCH  14  17
ATOM     17  C   UNL d   1      -1.827  47.682 -16.081  0.00  0.00    -0.004 C 
ATOM     18  C   UNL d   1      -2.105  46.645 -15.485  0.00  0.00    -0.066 C 
BRANCH  18  19
ATOM     19  C   UNL d   1      -2.444  45.422 -14.755  0.00  0.00     0.365 C 
BRANCH  19  20
ATOM     20  N   UNL d   1      -1.438  44.417 -15.031  0.00  0.00     0.090 N 
ATOM     21  C   UNL d   1      -1.558  43.395 -14.009  0.00  0.00     0.310 C 
ATOM     22  C   UNL d   1      -1.767  43.809 -16.305  0.00  0.00     0.310 C 
ENDBRANCH  19  20
ENDBRANCH  18  19
ENDBRANCH  14  17
ENDBRANCH   6  13
BRANCH   1  23
ATOM     23  O   UNL d   1       1.158  50.907 -16.037  0.00  0.00    -0.354 OA
ATOM     24  C   UNL d   1       2.088  51.725 -15.363  0.00  0.00     0.210 C 
ENDBRANCH   1  23
BRANCH   7  25
ATOM     25  N   UNL d   1      -0.488  50.801 -22.223  0.00  0.00    -0.342 N 
ATOM     26  HN  UNL d   1      -0.075  49.893 -22.434  1.00  0.00     0.167 HD
BRANCH  25  27
ATOM     27  C   UNL d   1      -1.786  51.148 -22.748  0.00  0.00     0.035 A 
ATOM     28  C   UNL d   1      -1.998  51.425 -24.069  0.00  0.00     0.056 A 
ATOM     29  C   UNL d   1      -3.281  51.761 -24.464  0.00  0.00     0.074 A 
ATOM     30 CL   UNL d   1      -3.613  52.125 -26.143  0.00  0.00    -0.081 Cl
ATOM     31  C   UNL d   1      -4.340  51.826 -23.584  0.00  0.00     0.138 A 
ATOM     32  F   UNL d   1      -5.607  52.164 -23.990  0.00  0.00    -0.204 F 
ATOM     33  C   UNL d   1      -4.115  51.542 -22.251  0.00  0.00     0.046 A 
ATOM     34  C   UNL d   1      -2.851  51.212 -21.869  0.00  0.00     0.032 A 
ENDBRANCH  25  27
ENDBRANCH   7  25
TORSDOF 7
ENDMDL
MODEL 4
REMARK VINA RESULT:      -7.0      1.292      1.433
REMARK  7 active torsions:
REMARK  status: ('A' for Active; 'I' for Inactive)
REMARK    1  A    between atoms: O_2  and  C_3 
REMARK    2  A    between atoms: C_8  and  N_9 
REMARK       I    between atoms: N_9  and  C_11 
REMARK    3  A    between atoms: C_11  and  C_13 
REMARK    4  A    between atoms: C_14  and  C_15 
REMARK    5  A    between atoms: C_15  and  N_16 
REMARK    6  A    between atoms: C_19  and  N_20 
REMARK    7  A    between atoms: N_20  and  C_22 
ROOT
ATOM      1  C   UNL d   1      -0.239  49.944 -18.788  0.00  0.00     0.097 A 
ATOM      2  C   UNL d   1       0.667  50.998 -18.747  0.00  0.00     0.069 A 
ATOM      3  C   UNL d   1       0.794  51.836 -19.814  0.00  0.00     0.049 A 
ATOM      4  C   UNL d   1       0.014  51.633 -20.936  0.00  0.00     0.037 A 
ATOM      5  C   UNL d   1      -0.896  50.588 -20.991  0.00  0.00     0.050 A 
ATOM      6  C   UNL d   1      -1.021  49.737 -19.907  0.00  0.00     0.070 A 
ATOM      7  C   UNL d   1       0.191  52.506 -21.990  0.00  0.00     0.119 A 
ATOM      8  N   UNL d   1       1.103  53.513 -21.895  0.00  0.00    -0.338 N 
ATOM      9  HN  UNL d   1       1.226  54.151 -22.680  1.00  0.00     0.168 HD
ATOM     10  C   UNL d   1       1.846  53.682 -20.787  0.00  0.00     0.182 A 
ATOM     11  N   UNL d   1       1.686  52.837 -19.744  0.00  0.00    -0.351 N 
ATOM     12  HN  UNL d   1       2.246  52.961 -18.901  1.00  0.00     0.166 HD
ENDROOT
BRANCH   6  13
ATOM     13  N   UNL d   1      -1.931  48.640 -19.888  0.00  0.00    -0.314 N 
ATOM     14  C   UNL d   1      -3.303  48.815 -19.530  0.00  0.00     0.301 C 
ATOM     15  O   UNL d   1      -3.802  49.932 -19.243  0.00  0.00    -0.258 OA
ATOM     16  HN  UNL d   1      -1.596  47.709 -20.136  1.00  0.00     0.170 HD
BRANCH  14  17
ATOM     17  C   UNL d   1      -4.149  47.649 -19.499  0.00  0.00    -0.004 C 
ATOM     18  C   UNL d   1      -4.877  46.662 -19.455  0.00  0.00    -0.066 C 
BRANCH  18  19
ATOM     19  C   UNL d   1      -5.740  45.479 -19.426  0.00  0.00     0.365 C 
BRANCH  19  20
ATOM     20  N   UNL d   1      -6.869  45.701 -20.306  0.00  0.00     0.090 N 
ATOM     21  C   UNL d   1      -6.342  45.892 -21.644  0.00  0.00     0.310 C 
ATOM     22  C   UNL d   1      -7.663  44.488 -20.312  0.00  0.00     0.310 C 
ENDBRANCH  19  20
ENDBRANCH  18  19
ENDBRANCH  14  17
ENDBRANCH   6  13
BRANCH   1  23
ATOM     23  O   UNL d   1      -0.357  49.100 -17.698  0.00  0.00    -0.354 OA
ATOM     24  C   UNL d   1       0.200  49.462 -16.454  0.00  0.00     0.210 C 
ENDBRANCH   1  23
BRANCH   7  25
ATOM     25  N   UNL d   1      -0.590  52.371 -23.197  0.00  0.00    -0.342 N 
ATOM     26  HN  UNL d   1      -1.599  52.238 -23.142  1.00  0.00     0.167 HD
BRANCH  25  27
ATOM     27  C   UNL d   1       0.066  52.426 -24.481  0.00  0.00     0.035 A 
ATOM     28  C   UNL d   1      -0.362  53.235 -25.495  0.00  0.00     0.056 A 
ATOM     29  C   UNL d   1       0.332  53.198 -26.691  0.00  0.00     0.074 A 
ATOM     30 CL   UNL d   1      -0.170  54.214 -28.026  0.00  0.00    -0.081 Cl
ATOM     31  C   UNL d   1       1.426  52.385 -26.895  0.00  0.00     0.138 A 
ATOM     32  F   UNL d   1       2.103  52.357 -28.089  0.00  0.00    -0.204 F 
ATOM     33  C   UNL d   1       1.852  51.572 -25.863  0.00  0.00     0.046 A 
ATOM     34  C   UNL d   1       1.165  51.613 -24.689  0.00  0.00     0.032 A 
ENDBRANCH  25  27
ENDBRANCH   7  25
TORSDOF 7
ENDMDL
MODEL 5
REMARK VINA RESULT:      -6.9      3.232      6.015
REMARK  7 active torsions:
REMARK  status: ('A' for Active; 'I' for Inactive)
REMARK    1  A    between atoms: O_2  and  C_3 
REMARK    2  A    between atoms: C_8  and  N_9 
REMARK       I    between atoms: N_9  and  C_11 
REMARK    3  A    between atoms: C_11  and  C_13 
REMARK    4  A    between atoms: C_14  and  C_15 
REMARK    5  A    between atoms: C_15  and  N_16 
REMARK    6  A    between atoms: C_19  and  N_20 
REMARK    7  A    between atoms: N_20  and  C_22 
ROOT
ATOM      1  C   UNL d   1      -4.187  49.606 -19.027  0.00  0.00     0.097 A 
ATOM      2  C   UNL d   1      -5.262  49.146 -19.779  0.00  0.00     0.069 A 
ATOM      3  C   UNL d   1      -5.526  49.684 -21.004  0.00  0.00     0.049 A 
ATOM      4  C   UNL d   1      -4.715  50.690 -21.493  0.00  0.00     0.037 A 
ATOM      5  C   UNL d   1      -3.638  51.160 -20.755  0.00  0.00     0.050 A 
ATOM      6  C   UNL d   1      -3.374  50.611 -19.512  0.00  0.00     0.070 A 
ATOM      7  C   UNL d   1      -5.033  51.206 -22.733  0.00  0.00     0.119 A 
ATOM      8  N   UNL d   1      -6.105  50.721 -23.416  0.00  0.00    -0.338 N 
ATOM      9  HN  UNL d   1      -6.332  51.110 -24.332  1.00  0.00     0.168 HD
ATOM     10  C   UNL d   1      -6.873  49.740 -22.911  0.00  0.00     0.182 A 
ATOM     11  N   UNL d   1      -6.577  49.222 -21.698  0.00  0.00    -0.351 N 
ATOM     12  HN  UNL d   1      -7.156  48.478 -21.309  1.00  0.00     0.166 HD
ENDROOT
BRANCH   6  13
ATOM     13  N   UNL d   1      -2.289  51.041 -18.694  0.00  0.00    -0.314 N 
ATOM     14  C   UNL d   1      -0.967  50.532 -18.881  0.00  0.00     0.301 C 
ATOM     15  O   UNL d   1      -0.667  49.710 -19.783  0.00  0.00    -0.258 OA
ATOM     16  HN  UNL d   1      -2.459  51.727 -17.958  1.00  0.00     0.170 HD
BRANCH  14  17
ATOM     17  C   UNL d   1       0.067  50.989 -17.988  0.00  0.00    -0.004 C 
ATOM     18  C   UNL d   1       0.937  51.371 -17.211  0.00  0.00    -0.066 C 
BRANCH  18  19
ATOM     19  C   UNL d   1       1.990  51.832 -16.303  0.00  0.00     0.365 C 
BRANCH  19  20
ATOM     20  N   UNL d   1       1.738  51.293 -14.982  0.00  0.00     0.090 N 
ATOM     21  C   UNL d   1       0.521  51.910 -14.490  0.00  0.00     0.310 C 
ATOM     22  C   UNL d   1       1.486  49.873 -15.130  0.00  0.00     0.310 C 
ENDBRANCH  19  20
ENDBRANCH  18  19
ENDBRANCH  14  17
ENDBRANCH   6  13
BRANCH   1  23
ATOM     23  O   UNL d   1      -3.933  49.051 -17.786  0.00  0.00    -0.354 OA
ATOM     24  C   UNL d   1      -3.457  47.728 -17.683  0.00  0.00     0.210 C 
ENDBRANCH   1  23
BRANCH   7  25
ATOM     25  N   UNL d   1      -4.233  52.254 -23.322  0.00  0.00    -0.342 N 
ATOM     26  HN  UNL d   1      -4.536  53.226 -23.261  1.00  0.00     0.167 HD
BRANCH  25  27
ATOM     27  C   UNL d   1      -3.004  51.918 -23.998  0.00  0.00     0.035 A 
ATOM     28  C   UNL d   1      -1.776  52.277 -23.520  0.00  0.00     0.056 A 
ATOM     29  C   UNL d   1      -0.662  51.916 -24.256  0.00  0.00     0.074 A 
ATOM     30 CL   UNL d   1       0.938  52.348 -23.692  0.00  0.00    -0.081 Cl
ATOM     31  C   UNL d   1      -0.744  51.215 -25.440  0.00  0.00     0.138 A 
ATOM     32  F   UNL d   1       0.371  50.867 -26.161  0.00  0.00    -0.204 F 
ATOM     33  C   UNL d   1      -1.990  50.855 -25.915  0.00  0.00     0.046 A 
ATOM     34  C   UNL d   1      -3.082  51.213 -25.186  0.00  0.00     0.032 A 
ENDBRANCH  25  27
ENDBRANCH   7  25
TORSDOF 7
ENDMDL
MODEL 6
REMARK VINA RESULT:      -6.9      3.706      5.097
REMARK  7 active torsions:
REMARK  status: ('A' for Active; 'I' for Inactive)
REMARK    1  A    between atoms: O_2  and  C_3 
REMARK    2  A    between atoms: C_8  and  N_9 
REMARK       I    between atoms: N_9  and  C_11 
REMARK    3  A    between atoms: C_11  and  C_13 
REMARK    4  A    between atoms: C_14  and  C_15 
REMARK    5  A    between atoms: C_15  and  N_16 
REMARK    6  A    between atoms: C_19  and  N_20 
REMARK    7  A    between atoms: N_20  and  C_22 
ROOT
ATOM      1  C   UNL d   1       0.942  52.251 -22.086  0.00  0.00     0.097 A 
ATOM      2  C   UNL d   1       1.270  52.958 -23.238  0.00  0.00     0.069 A 
ATOM      3  C   UNL d   1       0.416  52.976 -24.300  0.00  0.00     0.049 A 
ATOM      4  C   UNL d   1      -0.780  52.288 -24.223  0.00  0.00     0.037 A 
ATOM      5  C   UNL d   1      -1.122  51.579 -23.081  0.00  0.00     0.050 A 
ATOM      6  C   UNL d   1      -0.252  51.562 -22.005  0.00  0.00     0.070 A 
ATOM      7  C   UNL d   1      -1.601  52.332 -25.332  0.00  0.00     0.119 A 
ATOM      8  N   UNL d   1      -1.220  53.033 -26.434  0.00  0.00    -0.338 N 
ATOM      9  HN  UNL d   1      -1.834  53.058 -27.247  1.00  0.00     0.168 HD
ATOM     10  C   UNL d   1      -0.049  53.692 -26.474  0.00  0.00     0.182 A 
ATOM     11  N   UNL d   1       0.769  53.661 -25.399  0.00  0.00    -0.351 N 
ATOM     12  HN  UNL d   1       1.659  54.160 -25.423  1.00  0.00     0.166 HD
ENDROOT
BRANCH   6  13
ATOM     13  N   UNL d   1      -0.531  50.856 -20.798  0.00  0.00    -0.314 N 
ATOM     14  C   UNL d   1      -1.202  51.485 -19.705  0.00  0.00     0.301 C 
ATOM     15  O   UNL d   1      -1.613  52.671 -19.740  0.00  0.00    -0.258 OA
ATOM     16  HN  UNL d   1      -0.246  49.880 -20.714  1.00  0.00     0.170 HD
BRANCH  14  17
ATOM     17  C   UNL d   1      -1.412  50.713 -18.506  0.00  0.00    -0.004 C 
ATOM     18  C   UNL d   1      -1.611  50.062 -17.485  0.00  0.00    -0.066 C 
BRANCH  18  19
ATOM     19  C   UNL d   1      -1.827  49.274 -16.269  0.00  0.00     0.365 C 
BRANCH  19  20
ATOM     20  N   UNL d   1      -2.208  50.167 -15.194  0.00  0.00     0.090 N 
ATOM     21  C   UNL d   1      -2.852  49.363 -14.173  0.00  0.00     0.310 C 
ATOM     22  C   UNL d   1      -0.992  50.713 -14.626  0.00  0.00     0.310 C 
ENDBRANCH  19  20
ENDBRANCH  18  19
ENDBRANCH  14  17
ENDBRANCH   6  13
BRANCH   1  23
ATOM     23  O   UNL d   1       1.819  52.241 -21.016  0.00  0.00    -0.354 OA
ATOM     24  C   UNL d   1       2.021  53.408 -20.251  0.00  0.00     0.210 C 
ENDBRANCH   1  23
BRANCH   7  25
ATOM     25  N   UNL d   1      -2.873  51.648 -25.333  0.00  0.00    -0.342 N 
ATOM     26  HN  UNL d   1      -3.667  52.041 -24.827  1.00  0.00     0.167 HD
BRANCH  25  27
ATOM     27  C   UNL d   1      -3.014  50.406 -26.053  0.00  0.00     0.035 A 
ATOM     28  C   UNL d   1      -3.497  50.343 -27.329  0.00  0.00     0.056 A 
ATOM     29  C   UNL d   1      -3.605  49.098 -27.922  0.00  0.00     0.074 A 
ATOM     30 CL   UNL d   1      -4.217  48.956 -29.556  0.00  0.00    -0.081 Cl
ATOM     31  C   UNL d   1      -3.247  47.933 -27.280  0.00  0.00     0.138 A 
ATOM     32  F   UNL d   1      -3.363  46.703 -27.880  0.00  0.00    -0.204 F 
ATOM     33  C   UNL d   1      -2.758  48.006 -25.990  0.00  0.00     0.046 A 
ATOM     34  C   UNL d   1      -2.654  49.234 -25.413  0.00  0.00     0.032 A 
ENDBRANCH  25  27
ENDBRANCH   7  25
TORSDOF 7
ENDMDL
MODEL 7
REMARK VINA RESULT:      -6.8      4.694      7.380
REMARK  7 active torsions:
REMARK  status: ('A' for Active; 'I' for Inactive)
REMARK    1  A    between atoms: O_2  and  C_3 
REMARK    2  A    between atoms: C_8  and  N_9 
REMARK       I    between atoms: N_9  and  C_11 
REMARK    3  A    between atoms: C_11  and  C_13 
REMARK    4  A    between atoms: C_14  and  C_15 
REMARK    5  A    between atoms: C_15  and  N_16 
REMARK    6  A    between atoms: C_19  and  N_20 
REMARK    7  A    between atoms: N_20  and  C_22 
ROOT
ATOM      1  C   UNL d   1      -0.426  52.172 -22.781  0.00  0.00     0.097 A 
ATOM      2  C   UNL d   1      -0.816  52.307 -24.110  0.00  0.00     0.069 A 
ATOM      3  C   UNL d   1      -2.101  52.046 -24.479  0.00  0.00     0.049 A 
ATOM      4  C   UNL d   1      -3.016  51.648 -23.523  0.00  0.00     0.037 A 
ATOM      5  C   UNL d   1      -2.644  51.509 -22.194  0.00  0.00     0.050 A 
ATOM      6  C   UNL d   1      -1.337  51.774 -21.823  0.00  0.00     0.070 A 
ATOM      7  C   UNL d   1      -4.301  51.387 -23.955  0.00  0.00     0.119 A 
ATOM      8  N   UNL d   1      -4.619  51.527 -25.271  0.00  0.00    -0.338 N 
ATOM      9  HN  UNL d   1      -5.571  51.331 -25.578  1.00  0.00     0.168 HD
ATOM     10  C   UNL d   1      -3.703  51.918 -26.174  0.00  0.00     0.182 A 
ATOM     11  N   UNL d   1      -2.440  52.178 -25.771  0.00  0.00    -0.351 N 
ATOM     12  HN  UNL d   1      -1.741  52.475 -26.452  1.00  0.00     0.166 HD
ENDROOT
BRANCH   6  13
ATOM     13  N   UNL d   1      -0.878  51.652 -20.479  0.00  0.00    -0.314 N 
ATOM     14  C   UNL d   1      -0.351  50.421 -19.980  0.00  0.00     0.301 C 
ATOM     15  O   UNL d   1      -0.228  49.389 -20.685  0.00  0.00    -0.258 OA
ATOM     16  HN  UNL d   1      -0.925  52.461 -19.860  1.00  0.00     0.170 HD
BRANCH  14  17
ATOM     17  C   UNL d   1       0.058  50.370 -18.599  0.00  0.00    -0.004 C 
ATOM     18  C   UNL d   1       0.416  50.310 -17.427  0.00  0.00    -0.066 C 
BRANCH  18  19
ATOM     19  C   UNL d   1       0.835  50.260 -16.024  0.00  0.00     0.365 C 
BRANCH  19  20
ATOM     20  N   UNL d   1       0.896  51.611 -15.506  0.00  0.00     0.090 N 
ATOM     21  C   UNL d   1       1.220  51.518 -14.095  0.00  0.00     0.310 C 
ATOM     22  C   UNL d   1       1.995  52.285 -16.168  0.00  0.00     0.310 C 
ENDBRANCH  19  20
ENDBRANCH  18  19
ENDBRANCH  14  17
ENDBRANCH   6  13
BRANCH   1  23
ATOM     23  O   UNL d   1       0.882  52.439 -22.421  0.00  0.00    -0.354 OA
ATOM     24  C   UNL d   1       1.284  53.759 -22.127  0.00  0.00     0.210 C 
ENDBRANCH   1  23
BRANCH   7  25
ATOM     25  N   UNL d   1      -5.322  50.974 -23.021  0.00  0.00    -0.342 N 
ATOM     26  HN  UNL d   1      -5.679  51.631 -22.328  1.00  0.00     0.167 HD
BRANCH  25  27
ATOM     27  C   UNL d   1      -5.833  49.626 -23.074  0.00  0.00     0.035 A 
ATOM     28  C   UNL d   1      -5.025  48.526 -23.012  0.00  0.00     0.056 A 
ATOM     29  C   UNL d   1      -5.619  47.279 -23.086  0.00  0.00     0.074 A 
ATOM     30 CL   UNL d   1      -4.633  45.834 -23.011  0.00  0.00    -0.081 Cl
ATOM     31  C   UNL d   1      -6.979  47.107 -23.219  0.00  0.00     0.138 A 
ATOM     32  F   UNL d   1      -7.554  45.863 -23.295  0.00  0.00    -0.204 F 
ATOM     33  C   UNL d   1      -7.789  48.225 -23.279  0.00  0.00     0.046 A 
ATOM     34  C   UNL d   1      -7.198  49.449 -23.205  0.00  0.00     0.032 A 
ENDBRANCH  25  27
ENDBRANCH   7  25
TORSDOF 7
ENDMDL
MODEL 8
REMARK VINA RESULT:      -6.8      4.915      7.618
REMARK  7 active torsions:
REMARK  status: ('A' for Active; 'I' for Inactive)
REMARK    1  A    between atoms: O_2  and  C_3 
REMARK    2  A    between atoms: C_8  and  N_9 
REMARK       I    between atoms: N_9  and  C_11 
REMARK    3  A    between atoms: C_11  and  C_13 
REMARK    4  A    between atoms: C_14  and  C_15 
REMARK    5  A    between atoms: C_15  and  N_16 
REMARK    6  A    between atoms: C_19  and  N_20 
REMARK    7  A    between atoms: N_20  and  C_22 
ROOT
ATOM      1  C   UNL d   1      -0.150  52.901 -25.617  0.00  0.00     0.097 A 
ATOM      2  C   UNL d   1       0.572  53.850 -24.902  0.00  0.00     0.069 A 
ATOM      3  C   UNL d   1       0.926  53.613 -23.607  0.00  0.00     0.049 A 
ATOM      4  C   UNL d   1       0.564  52.420 -23.011  0.00  0.00     0.037 A 
ATOM      5  C   UNL d   1      -0.154  51.462 -23.711  0.00  0.00     0.050 A 
ATOM      6  C   UNL d   1      -0.514  51.707 -25.025  0.00  0.00     0.070 A 
ATOM      7  C   UNL d   1       0.940  52.236 -21.695  0.00  0.00     0.119 A 
ATOM      8  N   UNL d   1       1.637  53.208 -21.045  0.00  0.00    -0.338 N 
ATOM      9  HN  UNL d   1       1.909  53.062 -20.073  1.00  0.00     0.168 HD
ATOM     10  C   UNL d   1       1.974  54.357 -21.657  0.00  0.00     0.182 A 
ATOM     11  N   UNL d   1       1.614  54.555 -22.944  0.00  0.00    -0.351 N 
ATOM     12  HN  UNL d   1       1.867  55.425 -23.414  1.00  0.00     0.166 HD
ENDROOT
BRANCH   6  13
ATOM     13  N   UNL d   1      -1.254  50.775 -25.809  0.00  0.00    -0.314 N 
ATOM     14  C   UNL d   1      -2.683  50.754 -25.791  0.00  0.00     0.301 C 
ATOM     15  O   UNL d   1      -3.374  51.561 -25.121  0.00  0.00    -0.258 OA
ATOM     16  HN  UNL d   1      -0.754  50.108 -26.396  1.00  0.00     0.170 HD
BRANCH  14  17
ATOM     17  C   UNL d   1      -3.355  49.756 -26.583  0.00  0.00    -0.004 C 
ATOM     18  C   UNL d   1      -3.909  48.897 -27.262  0.00  0.00    -0.066 C 
BRANCH  18  19
ATOM     19  C   UNL d   1      -4.592  47.880 -28.064  0.00  0.00     0.365 C 
BRANCH  19  20
ATOM     20  N   UNL d   1      -5.303  48.535 -29.143  0.00  0.00     0.090 N 
ATOM     21  C   UNL d   1      -4.325  48.884 -30.155  0.00  0.00     0.310 C 
ATOM     22  C   UNL d   1      -6.211  47.564 -29.722  0.00  0.00     0.310 C 
ENDBRANCH  19  20
ENDBRANCH  18  19
ENDBRANCH  14  17
ENDBRANCH   6  13
BRANCH   1  23
ATOM     23  O   UNL d   1      -0.504  53.156 -26.929  0.00  0.00    -0.354 OA
ATOM     24  C   UNL d   1       0.136  54.185 -27.651  0.00  0.00     0.210 C 
ENDBRANCH   1  23
BRANCH   7  25
ATOM     25  N   UNL d   1       0.611  51.016 -20.999  0.00  0.00    -0.342 N 
ATOM     26  HN  UNL d   1       1.349  50.369 -20.720  1.00  0.00     0.167 HD
BRANCH  25  27
ATOM     27  C   UNL d   1      -0.768  50.715 -20.700  0.00  0.00     0.035 A 
ATOM     28  C   UNL d   1      -1.344  49.513 -20.998  0.00  0.00     0.056 A 
ATOM     29  C   UNL d   1      -2.679  49.336 -20.681  0.00  0.00     0.074 A 
ATOM     30 CL   UNL d   1      -3.469  47.816 -21.039  0.00  0.00    -0.081 Cl
ATOM     31  C   UNL d   1      -3.440  50.316 -20.082  0.00  0.00     0.138 A 
ATOM     32  F   UNL d   1      -4.765  50.127 -19.777  0.00  0.00    -0.204 F 
ATOM     33  C   UNL d   1      -2.849  51.528 -19.783  0.00  0.00     0.046 A 
ATOM     34  C   UNL d   1      -1.535  51.696 -20.098  0.00  0.00     0.032 A 
ENDBRANCH  25  27
ENDBRANCH   7  25
TORSDOF 7
ENDMDL
MODEL 9
REMARK VINA RESULT:      -6.7      5.259      8.142
REMARK  7 active torsions:
REMARK  status: ('A' for Active; 'I' for Inactive)
REMARK    1  A    between atoms: O_2  and  C_3 
REMARK    2  A    between atoms: C_8  and  N_9 
REMARK       I    between atoms: N_9  and  C_11 
REMARK    3  A    between atoms: C_11  and  C_13 
REMARK    4  A    between atoms: C_14  and  C_15 
REMARK    5  A    between atoms: C_15  and  N_16 
REMARK    6  A    between atoms: C_19  and  N_20 
REMARK    7  A    between atoms: N_20  and  C_22 
ROOT
ATOM      1  C   UNL d   1       0.268  52.511 -24.708  0.00  0.00     0.097 A 
ATOM      2  C   UNL d   1       0.933  53.259 -23.742  0.00  0.00     0.069 A 
ATOM      3  C   UNL d   1       0.756  52.985 -22.419  0.00  0.00     0.049 A 
ATOM      4  C   UNL d   1      -0.087  51.956 -22.044  0.00  0.00     0.037 A 
ATOM      5  C   UNL d   1      -0.755  51.200 -22.995  0.00  0.00     0.050 A 
ATOM      6  C   UNL d   1      -0.575  51.482 -24.338  0.00  0.00     0.070 A 
ATOM      7  C   UNL d   1      -0.236  51.729 -20.690  0.00  0.00     0.119 A 
ATOM      8  N   UNL d   1       0.433  52.503 -19.793  0.00  0.00    -0.338 N 
ATOM      9  HN  UNL d   1       0.314  52.327 -18.795  1.00  0.00     0.168 HD
ATOM     10  C   UNL d   1       1.246  53.496 -20.193  0.00  0.00     0.182 A 
ATOM     11  N   UNL d   1       1.406  53.733 -21.513  0.00  0.00    -0.351 N 
ATOM     12  HN  UNL d   1       2.022  54.485 -21.823  1.00  0.00     0.166 HD
ENDROOT
BRANCH   6  13
ATOM     13  N   UNL d   1      -1.228  50.752 -25.374  0.00  0.00    -0.314 N 
ATOM     14  C   UNL d   1      -2.529  51.118 -25.836  0.00  0.00     0.301 C 
ATOM     15  O   UNL d   1      -3.164  52.108 -25.394  0.00  0.00    -0.258 OA
ATOM     16  HN  UNL d   1      -0.757  49.951 -25.794  1.00  0.00     0.170 HD
BRANCH  14  17
ATOM     17  C   UNL d   1      -3.136  50.307 -26.861  0.00  0.00    -0.004 C 
ATOM     18  C   UNL d   1      -3.647  49.630 -27.748  0.00  0.00    -0.066 C 
BRANCH  18  19
ATOM     19  C   UNL d   1      -4.260  48.803 -28.790  0.00  0.00     0.365 C 
BRANCH  19  20
ATOM     20  N   UNL d   1      -3.363  47.711 -29.109  0.00  0.00     0.090 N 
ATOM     21  C   UNL d   1      -3.409  46.778 -27.999  0.00  0.00     0.310 C 
ATOM     22  C   UNL d   1      -3.894  47.036 -30.277  0.00  0.00     0.310 C 
ENDBRANCH  19  20
ENDBRANCH  18  19
ENDBRANCH  14  17
ENDBRANCH   6  13
BRANCH   1  23
ATOM     23  O   UNL d   1       0.456  52.801 -26.047  0.00  0.00    -0.354 OA
ATOM     24  C   UNL d   1       0.061  54.051 -26.567  0.00  0.00     0.210 C 
ENDBRANCH   1  23
BRANCH   7  25
ATOM     25  N   UNL d   1      -1.091  50.669 -20.212  0.00  0.00    -0.342 N 
ATOM     26  HN  UNL d   1      -1.653  50.128 -20.869  1.00  0.00     0.167 HD
BRANCH  25  27
ATOM     27  C   UNL d   1      -1.145  50.378 -18.800  0.00  0.00     0.035 A 
ATOM     28  C   UNL d   1      -2.203  50.733 -18.012  0.00  0.00     0.056 A 
ATOM     29  C   UNL d   1      -2.146  50.419 -16.666  0.00  0.00     0.074 A 
ATOM     30 CL   UNL d   1      -3.474  50.848 -15.610  0.00  0.00    -0.081 Cl
ATOM     31  C   UNL d   1      -1.072  49.769 -16.097  0.00  0.00     0.138 A 
ATOM     32  F   UNL d   1      -1.028  49.468 -14.759  0.00  0.00    -0.204 F 
ATOM     33  C   UNL d   1      -0.007  49.413 -16.901  0.00  0.00     0.046 A 
ATOM     34  C   UNL d   1      -0.070  49.725 -18.224  0.00  0.00     0.032 A 
ENDBRANCH  25  27
ENDBRANCH   7  25
TORSDOF 7
ENDMDL
