MODEL 1
REMARK VINA RESULT:      -8.3      0.000      0.000
REMARK  5 active torsions:
REMARK  status: ('A' for Active; 'I' for Inactive)
REMARK       I    between atoms: N_2  and  C_4 
REMARK    1  A    between atoms: C_4  and  C_6 
REMARK    2  A    between atoms: C_10  and  N_11 
REMARK       I    between atoms: N_11  and  C_13 
REMARK       I    between atoms: C_13  and  N_15 
REMARK    3  A    between atoms: N_15  and  C_17 
REMARK    4  A    between atoms: C_20  and  C_21 
REMARK    5  A    between atoms: C_26  and  N_27 
ROOT
ATOM      1  C   UNL d   1      28.235  47.142   8.314  0.00  0.00     0.108 A 
ATOM      2  C   UNL d   1      28.323  46.343   9.455  0.00  0.00     0.049 A 
ATOM      3  C   UNL d   1      29.414  45.537   9.710  0.00  0.00     0.017 A 
ATOM      4  C   UNL d   1      30.431  45.567   8.756  0.00  0.00    -0.010 A 
ATOM      5  C   UNL d   1      30.315  46.378   7.623  0.00  0.00     0.102 A 
ATOM      6  N   UNL d   1      29.229  47.159   7.401  0.00  0.00    -0.351 N 
ATOM      7  HN  UNL d   1      29.166  47.744   6.567  1.00  0.00     0.166 HD
ENDROOT
BRANCH   1   8
ATOM      8  N   UNL d   1      27.054  47.924   8.179  0.00  0.00    -0.294 N 
ATOM      9  C   UNL d   1      27.073  49.183   7.563  0.00  0.00     0.326 C 
ATOM     10  N   UNL d   1      25.839  49.912   7.510  0.00  0.00    -0.309 N 
ATOM     11  O   UNL d   1      28.146  49.632   7.086  0.00  0.00    -0.247 OA
ATOM     12  HN  UNL d   1      24.989  49.522   7.916  1.00  0.00     0.170 HD
ATOM     13  HN  UNL d   1      26.172  47.559   8.537  1.00  0.00     0.172 HD
BRANCH  10  14
ATOM     14  C   UNL d   1      25.817  51.190   6.882  0.00  0.00     0.037 A 
ATOM     15  C   UNL d   1      25.112  51.451   5.725  0.00  0.00     0.029 A 
ATOM     16  C   UNL d   1      25.091  52.692   5.116  0.00  0.00     0.003 A 
ATOM     17  C   UNL d   1      25.794  53.734   5.664  0.00  0.00     0.017 A 
ATOM     18  C   UNL d   1      26.508  53.498   6.822  0.00  0.00     0.034 A 
ATOM     19  C   UNL d   1      26.525  52.262   7.425  0.00  0.00     0.046 A 
BRANCH  18  20
ATOM     20  C   UNL d   1      27.249  54.619   7.390  0.00  0.00     0.251 C 
ATOM     21  N   UNL d   1      28.165  54.459   8.471  0.00  0.00    -0.361 N 
ATOM     22  C   UNL d   1      28.936  55.640   8.854  0.00  0.00     0.149 C 
ATOM     23  HN  UNL d   1      28.277  53.565   8.950  1.00  0.00     0.162 HD
ATOM     24  O   UNL d   1      27.079  55.772   6.912  0.00  0.00    -0.268 OA
ENDBRANCH  18  20
ENDBRANCH  10  14
ENDBRANCH   1   8
BRANCH   4  25
ATOM     25  C   UNL d   1      31.582  44.732   9.001  0.00  0.00    -0.017 A 
ATOM     26  C   UNL d   1      31.455  43.370   8.790  0.00  0.00    -0.051 A 
ATOM     27  C   UNL d   1      30.158  42.811   8.324  0.00  0.00     0.049 C 
ATOM     28  C   UNL d   1      32.536  42.513   9.010  0.00  0.00     0.010 A 
ATOM     29  C   UNL d   1      33.767  43.011   9.447  0.00  0.00     0.030 A 
ATOM     30  C   UNL d   1      33.890  44.370   9.658  0.00  0.00     0.030 A 
ATOM     31  C   UNL d   1      32.806  45.202   9.433  0.00  0.00     0.042 A 
BRANCH  30  32
ATOM     32  N   UNL d   1      35.105  44.972  10.104  0.00  0.00    -0.390 N 
ATOM     33  C   UNL d   1      36.312  44.954   9.303  0.00  0.00     0.149 C 
ATOM     34  C   UNL d   1      35.096  45.615  11.407  0.00  0.00     0.149 C 
ENDBRANCH  30  32
ENDBRANCH   4  25
TORSDOF 5
ENDMDL
MODEL 2
REMARK VINA RESULT:      -7.9      2.558      3.505
REMARK  5 active torsions:
REMARK  status: ('A' for Active; 'I' for Inactive)
REMARK       I    between atoms: N_2  and  C_4 
REMARK    1  A    between atoms: C_4  and  C_6 
REMARK    2  A    between atoms: C_10  and  N_11 
REMARK       I    between atoms: N_11  and  C_13 
REMARK       I    between atoms: C_13  and  N_15 
REMARK    3  A    between atoms: N_15  and  C_17 
REMARK    4  A    between atoms: C_20  and  C_21 
REMARK    5  A    between atoms: C_26  and  N_27 
ROOT
ATOM      1  C   UNL d   1      30.573  49.946   6.670  0.00  0.00     0.108 A 
ATOM      2  C   UNL d   1      31.492  49.545   7.640  0.00  0.00     0.049 A 
ATOM      3  C   UNL d   1      31.534  48.254   8.129  0.00  0.00     0.017 A 
ATOM      4  C   UNL d   1      30.600  47.369   7.594  0.00  0.00    -0.010 A 
ATOM      5  C   UNL d   1      29.691  47.799   6.623  0.00  0.00     0.102 A 
ATOM      6  N   UNL d   1      29.674  49.074   6.163  0.00  0.00    -0.351 N 
ATOM      7  HN  UNL d   1      29.002  49.367   5.453  1.00  0.00     0.166 HD
ENDROOT
BRANCH   1   8
ATOM      8  N   UNL d   1      30.642  51.306   6.256  0.00  0.00    -0.294 N 
ATOM      9  C   UNL d   1      29.503  52.123   6.225  0.00  0.00     0.326 C 
ATOM     10  N   UNL d   1      29.666  53.468   5.755  0.00  0.00    -0.309 N 
ATOM     11  O   UNL d   1      28.393  51.666   6.600  0.00  0.00    -0.247 OA
ATOM     12  HN  UNL d   1      30.580  53.802   5.450  1.00  0.00     0.170 HD
ATOM     13  HN  UNL d   1      31.541  51.695   5.976  1.00  0.00     0.172 HD
BRANCH  10  14
ATOM     14  C   UNL d   1      28.534  54.331   5.720  0.00  0.00     0.037 A 
ATOM     15  C   UNL d   1      27.905  54.704   4.550  0.00  0.00     0.029 A 
ATOM     16  C   UNL d   1      26.806  55.541   4.516  0.00  0.00     0.003 A 
ATOM     17  C   UNL d   1      26.292  56.042   5.685  0.00  0.00     0.017 A 
ATOM     18  C   UNL d   1      26.905  55.684   6.869  0.00  0.00     0.034 A 
ATOM     19  C   UNL d   1      27.998  54.850   6.898  0.00  0.00     0.046 A 
BRANCH  18  20
ATOM     20  C   UNL d   1      26.344  56.227   8.102  0.00  0.00     0.251 C 
ATOM     21  N   UNL d   1      26.678  55.706   9.386  0.00  0.00    -0.361 N 
ATOM     22  C   UNL d   1      26.146  56.426  10.542  0.00  0.00     0.149 C 
ATOM     23  HN  UNL d   1      27.258  54.873   9.493  1.00  0.00     0.162 HD
ATOM     24  O   UNL d   1      25.536  57.191   8.036  0.00  0.00    -0.268 OA
ENDBRANCH  18  20
ENDBRANCH  10  14
ENDBRANCH   1   8
BRANCH   4  25
ATOM     25  C   UNL d   1      30.624  46.013   8.091  0.00  0.00    -0.017 A 
ATOM     26  C   UNL d   1      29.600  45.608   8.928  0.00  0.00    -0.051 A 
ATOM     27  C   UNL d   1      28.518  46.563   9.290  0.00  0.00     0.049 C 
ATOM     28  C   UNL d   1      29.572  44.308   9.439  0.00  0.00     0.010 A 
ATOM     29  C   UNL d   1      30.574  43.390   9.115  0.00  0.00     0.030 A 
ATOM     30  C   UNL d   1      31.596  43.798   8.280  0.00  0.00     0.030 A 
ATOM     31  C   UNL d   1      31.605  45.091   7.785  0.00  0.00     0.042 A 
BRANCH  30  32
ATOM     32  N   UNL d   1      32.664  42.934   7.893  0.00  0.00    -0.390 N 
ATOM     33  C   UNL d   1      34.017  43.418   7.705  0.00  0.00     0.149 C 
ATOM     34  C   UNL d   1      32.350  41.529   7.690  0.00  0.00     0.149 C 
ENDBRANCH  30  32
ENDBRANCH   4  25
TORSDOF 5
ENDMDL
MODEL 3
REMARK VINA RESULT:      -7.7      2.001      3.216
REMARK  5 active torsions:
REMARK  status: ('A' for Active; 'I' for Inactive)
REMARK       I    between atoms: N_2  and  C_4 
REMARK    1  A    between atoms: C_4  and  C_6 
REMARK    2  A    between atoms: C_10  and  N_11 
REMARK       I    between atoms: N_11  and  C_13 
REMARK       I    between atoms: C_13  and  N_15 
REMARK    3  A    between atoms: N_15  and  C_17 
REMARK    4  A    between atoms: C_20  and  C_21 
REMARK    5  A    between atoms: C_26  and  N_27 
ROOT
ATOM      1  C   UNL d   1      28.130  46.926   8.380  0.00  0.00     0.108 A 
ATOM      2  C   UNL d   1      28.208  46.056   9.468  0.00  0.00     0.049 A 
ATOM      3  C   UNL d   1      29.329  45.292   9.724  0.00  0.00     0.017 A 
ATOM      4  C   UNL d   1      30.386  45.441   8.828  0.00  0.00    -0.010 A 
ATOM      5  C   UNL d   1      30.280  46.322   7.747  0.00  0.00     0.102 A 
ATOM      6  N   UNL d   1      29.164  47.058   7.521  0.00  0.00    -0.351 N 
ATOM      7  HN  UNL d   1      29.109  47.695   6.727  1.00  0.00     0.166 HD
ENDROOT
BRANCH   1   8
ATOM      8  N   UNL d   1      26.915  47.653   8.236  0.00  0.00    -0.294 N 
ATOM      9  C   UNL d   1      26.818  48.762   7.384  0.00  0.00     0.326 C 
ATOM     10  N   UNL d   1      25.562  49.453   7.337  0.00  0.00    -0.309 N 
ATOM     11  O   UNL d   1      27.812  49.115   6.700  0.00  0.00    -0.247 OA
ATOM     12  HN  UNL d   1      24.780  49.144   7.914  1.00  0.00     0.170 HD
ATOM     13  HN  UNL d   1      26.095  47.359   8.765  1.00  0.00     0.172 HD
BRANCH  10  14
ATOM     14  C   UNL d   1      25.423  50.577   6.475  0.00  0.00     0.037 A 
ATOM     15  C   UNL d   1      25.631  51.877   6.889  0.00  0.00     0.029 A 
ATOM     16  C   UNL d   1      25.496  52.968   6.051  0.00  0.00     0.003 A 
ATOM     17  C   UNL d   1      25.140  52.783   4.740  0.00  0.00     0.017 A 
ATOM     18  C   UNL d   1      24.926  51.491   4.301  0.00  0.00     0.034 A 
ATOM     19  C   UNL d   1      25.062  50.408   5.138  0.00  0.00     0.046 A 
BRANCH  18  20
ATOM     20  C   UNL d   1      24.548  51.315   2.903  0.00  0.00     0.251 C 
ATOM     21  N   UNL d   1      23.621  52.178   2.248  0.00  0.00    -0.361 N 
ATOM     22  C   UNL d   1      23.432  51.966   0.814  0.00  0.00     0.149 C 
ATOM     23  HN  UNL d   1      23.117  52.906   2.754  1.00  0.00     0.162 HD
ATOM     24  O   UNL d   1      25.056  50.368   2.246  0.00  0.00    -0.268 OA
ENDBRANCH  18  20
ENDBRANCH  10  14
ENDBRANCH   1   8
BRANCH   4  25
ATOM     25  C   UNL d   1      31.570  44.653   9.076  0.00  0.00    -0.017 A 
ATOM     26  C   UNL d   1      31.512  43.294   8.818  0.00  0.00    -0.051 A 
ATOM     27  C   UNL d   1      30.254  42.691   8.302  0.00  0.00     0.049 C 
ATOM     28  C   UNL d   1      32.627  42.481   9.039  0.00  0.00     0.010 A 
ATOM     29  C   UNL d   1      33.822  43.020   9.523  0.00  0.00     0.030 A 
ATOM     30  C   UNL d   1      33.876  44.377   9.779  0.00  0.00     0.030 A 
ATOM     31  C   UNL d   1      32.759  45.164   9.554  0.00  0.00     0.042 A 
BRANCH  30  32
ATOM     32  N   UNL d   1      35.050  45.019  10.275  0.00  0.00    -0.390 N 
ATOM     33  C   UNL d   1      35.087  45.659  11.575  0.00  0.00     0.149 C 
ATOM     34  C   UNL d   1      36.228  45.012   9.424  0.00  0.00     0.149 C 
ENDBRANCH  30  32
ENDBRANCH   4  25
TORSDOF 5
ENDMDL
MODEL 4
REMARK VINA RESULT:      -7.6      3.586     10.234
REMARK  5 active torsions:
REMARK  status: ('A' for Active; 'I' for Inactive)
REMARK       I    between atoms: N_2  and  C_4 
REMARK    1  A    between atoms: C_4  and  C_6 
REMARK    2  A    between atoms: C_10  and  N_11 
REMARK       I    between atoms: N_11  and  C_13 
REMARK       I    between atoms: C_13  and  N_15 
REMARK    3  A    between atoms: N_15  and  C_17 
REMARK    4  A    between atoms: C_20  and  C_21 
REMARK    5  A    between atoms: C_26  and  N_27 
ROOT
ATOM      1  C   UNL d   1      27.731  49.674   6.271  0.00  0.00     0.108 A 
ATOM      2  C   UNL d   1      26.852  50.104   5.276  0.00  0.00     0.049 A 
ATOM      3  C   UNL d   1      25.487  50.167   5.474  0.00  0.00     0.017 A 
ATOM      4  C   UNL d   1      25.034  49.775   6.732  0.00  0.00    -0.010 A 
ATOM      5  C   UNL d   1      25.939  49.348   7.710  0.00  0.00     0.102 A 
ATOM      6  N   UNL d   1      27.274  49.297   7.485  0.00  0.00    -0.351 N 
ATOM      7  HN  UNL d   1      27.917  48.984   8.213  1.00  0.00     0.166 HD
ENDROOT
BRANCH   1   8
ATOM      8  N   UNL d   1      29.113  49.659   5.931  0.00  0.00    -0.294 N 
ATOM      9  C   UNL d   1      29.960  48.622   6.345  0.00  0.00     0.326 C 
ATOM     10  N   UNL d   1      31.346  48.716   5.987  0.00  0.00    -0.309 N 
ATOM     11  O   UNL d   1      29.495  47.658   7.005  0.00  0.00    -0.247 OA
ATOM     12  HN  UNL d   1      31.690  49.518   5.459  1.00  0.00     0.170 HD
ATOM     13  HN  UNL d   1      29.495  50.421   5.373  1.00  0.00     0.172 HD
BRANCH  10  14
ATOM     14  C   UNL d   1      32.234  47.676   6.380  0.00  0.00     0.037 A 
ATOM     15  C   UNL d   1      32.733  46.736   5.500  0.00  0.00     0.029 A 
ATOM     16  C   UNL d   1      33.596  45.726   5.883  0.00  0.00     0.003 A 
ATOM     17  C   UNL d   1      33.994  45.627   7.191  0.00  0.00     0.017 A 
ATOM     18  C   UNL d   1      33.509  46.554   8.090  0.00  0.00     0.034 A 
ATOM     19  C   UNL d   1      32.650  47.558   7.705  0.00  0.00     0.046 A 
BRANCH  18  20
ATOM     20  C   UNL d   1      33.944  46.432   9.478  0.00  0.00     0.251 C 
ATOM     21  N   UNL d   1      33.850  45.207  10.201  0.00  0.00    -0.361 N 
ATOM     22  C   UNL d   1      34.441  45.191  11.538  0.00  0.00     0.149 C 
ATOM     23  HN  UNL d   1      33.394  44.384   9.806  1.00  0.00     0.162 HD
ATOM     24  O   UNL d   1      34.421  47.440  10.062  0.00  0.00    -0.268 OA
ENDBRANCH  18  20
ENDBRANCH  10  14
ENDBRANCH   1   8
BRANCH   4  25
ATOM     25  C   UNL d   1      23.610  49.832   6.963  0.00  0.00    -0.017 A 
ATOM     26  C   UNL d   1      22.869  48.683   6.748  0.00  0.00    -0.051 A 
ATOM     27  C   UNL d   1      23.547  47.440   6.292  0.00  0.00     0.049 C 
ATOM     28  C   UNL d   1      21.488  48.679   6.954  0.00  0.00     0.010 A 
ATOM     29  C   UNL d   1      20.825  49.833   7.382  0.00  0.00     0.030 A 
ATOM     30  C   UNL d   1      21.567  50.978   7.596  0.00  0.00     0.030 A 
ATOM     31  C   UNL d   1      22.935  50.960   7.385  0.00  0.00     0.042 A 
BRANCH  30  32
ATOM     32  N   UNL d   1      20.980  52.204   8.032  0.00  0.00    -0.390 N 
ATOM     33  C   UNL d   1      20.020  52.254   9.116  0.00  0.00     0.149 C 
ATOM     34  C   UNL d   1      21.381  53.421   7.346  0.00  0.00     0.149 C 
ENDBRANCH  30  32
ENDBRANCH   4  25
TORSDOF 5
ENDMDL
MODEL 5
REMARK VINA RESULT:      -7.5      2.655     10.184
REMARK  5 active torsions:
REMARK  status: ('A' for Active; 'I' for Inactive)
REMARK       I    between atoms: N_2  and  C_4 
REMARK    1  A    between atoms: C_4  and  C_6 
REMARK    2  A    between atoms: C_10  and  N_11 
REMARK       I    between atoms: N_11  and  C_13 
REMARK       I    between atoms: C_13  and  N_15 
REMARK    3  A    between atoms: N_15  and  C_17 
REMARK    4  A    between atoms: C_20  and  C_21 
REMARK    5  A    between atoms: C_26  and  N_27 
ROOT
ATOM      1  C   UNL d   1      29.179  47.844   7.039  0.00  0.00     0.108 A 
ATOM      2  C   UNL d   1      27.958  47.919   7.710  0.00  0.00     0.049 A 
ATOM      3  C   UNL d   1      27.142  49.030   7.638  0.00  0.00     0.017 A 
ATOM      4  C   UNL d   1      27.610  50.080   6.849  0.00  0.00    -0.010 A 
ATOM      5  C   UNL d   1      28.838  49.976   6.187  0.00  0.00     0.102 A 
ATOM      6  N   UNL d   1      29.617  48.871   6.279  0.00  0.00    -0.351 N 
ATOM      7  HN  UNL d   1      30.509  48.816   5.787  1.00  0.00     0.166 HD
ENDROOT
BRANCH   1   8
ATOM      8  N   UNL d   1      29.918  46.639   7.201  0.00  0.00    -0.294 N 
ATOM      9  C   UNL d   1      31.113  46.603   7.934  0.00  0.00     0.326 C 
ATOM     10  N   UNL d   1      31.807  45.350   8.008  0.00  0.00    -0.309 N 
ATOM     11  O   UNL d   1      31.537  47.646   8.494  0.00  0.00    -0.247 OA
ATOM     12  HN  UNL d   1      31.439  44.526   7.533  1.00  0.00     0.170 HD
ATOM     13  HN  UNL d   1      29.571  45.781   6.775  1.00  0.00     0.172 HD
BRANCH  10  14
ATOM     14  C   UNL d   1      33.018  45.272   8.753  0.00  0.00     0.037 A 
ATOM     15  C   UNL d   1      33.079  44.797  10.047  0.00  0.00     0.029 A 
ATOM     16  C   UNL d   1      34.254  44.722  10.770  0.00  0.00     0.003 A 
ATOM     17  C   UNL d   1      35.433  45.131  10.202  0.00  0.00     0.017 A 
ATOM     18  C   UNL d   1      35.398  45.611   8.908  0.00  0.00     0.034 A 
ATOM     19  C   UNL d   1      34.226  45.684   8.192  0.00  0.00     0.046 A 
BRANCH  18  20
ATOM     20  C   UNL d   1      36.663  46.042   8.320  0.00  0.00     0.251 C 
ATOM     21  N   UNL d   1      37.469  47.061   8.907  0.00  0.00    -0.361 N 
ATOM     22  C   UNL d   1      38.770  47.302   8.287  0.00  0.00     0.149 C 
ATOM     23  HN  UNL d   1      37.153  47.593   9.718  1.00  0.00     0.162 HD
ATOM     24  O   UNL d   1      37.062  45.496   7.258  0.00  0.00    -0.268 OA
ENDBRANCH  18  20
ENDBRANCH  10  14
ENDBRANCH   1   8
BRANCH   4  25
ATOM     25  C   UNL d   1      26.774  51.253   6.758  0.00  0.00    -0.017 A 
ATOM     26  C   UNL d   1      25.748  51.250   5.829  0.00  0.00    -0.051 A 
ATOM     27  C   UNL d   1      25.537  50.059   4.963  0.00  0.00     0.049 C 
ATOM     28  C   UNL d   1      24.907  52.357   5.696  0.00  0.00     0.010 A 
ATOM     29  C   UNL d   1      25.082  53.489   6.496  0.00  0.00     0.030 A 
ATOM     30  C   UNL d   1      26.107  53.489   7.422  0.00  0.00     0.030 A 
ATOM     31  C   UNL d   1      26.930  52.381   7.537  0.00  0.00     0.042 A 
BRANCH  30  32
ATOM     32  N   UNL d   1      26.365  54.598   8.283  0.00  0.00    -0.390 N 
ATOM     33  C   UNL d   1      25.413  55.033   9.284  0.00  0.00     0.149 C 
ATOM     34  C   UNL d   1      27.634  55.290   8.124  0.00  0.00     0.149 C 
ENDBRANCH  30  32
ENDBRANCH   4  25
TORSDOF 5
ENDMDL
MODEL 6
REMARK VINA RESULT:      -7.5      3.256      4.166
REMARK  5 active torsions:
REMARK  status: ('A' for Active; 'I' for Inactive)
REMARK       I    between atoms: N_2  and  C_4 
REMARK    1  A    between atoms: C_4  and  C_6 
REMARK    2  A    between atoms: C_10  and  N_11 
REMARK       I    between atoms: N_11  and  C_13 
REMARK       I    between atoms: C_13  and  N_15 
REMARK    3  A    between atoms: N_15  and  C_17 
REMARK    4  A    between atoms: C_20  and  C_21 
REMARK    5  A    between atoms: C_26  and  N_27 
ROOT
ATOM      1  C   UNL d   1      29.687  48.599   6.885  0.00  0.00     0.108 A 
ATOM      2  C   UNL d   1      30.205  47.474   6.243  0.00  0.00     0.049 A 
ATOM      3  C   UNL d   1      31.291  46.777   6.734  0.00  0.00     0.017 A 
ATOM      4  C   UNL d   1      31.843  47.264   7.917  0.00  0.00    -0.010 A 
ATOM      5  C   UNL d   1      31.303  48.394   8.539  0.00  0.00     0.102 A 
ATOM      6  N   UNL d   1      30.236  49.058   8.031  0.00  0.00    -0.351 N 
ATOM      7  HN  UNL d   1      29.858  49.880   8.502  1.00  0.00     0.166 HD
ENDROOT
BRANCH   1   8
ATOM      8  N   UNL d   1      28.565  49.221   6.268  0.00  0.00    -0.294 N 
ATOM      9  C   UNL d   1      27.258  48.990   6.719  0.00  0.00     0.326 C 
ATOM     10  N   UNL d   1      26.190  49.631   6.007  0.00  0.00    -0.309 N 
ATOM     11  O   UNL d   1      27.059  48.245   7.712  0.00  0.00    -0.247 OA
ATOM     12  HN  UNL d   1      26.388  50.221   5.200  1.00  0.00     0.170 HD
ATOM     13  HN  UNL d   1      28.716  49.848   5.480  1.00  0.00     0.172 HD
BRANCH  10  14
ATOM     14  C   UNL d   1      24.850  49.430   6.443  0.00  0.00     0.037 A 
ATOM     15  C   UNL d   1      24.233  48.195   6.444  0.00  0.00     0.029 A 
ATOM     16  C   UNL d   1      22.932  48.000   6.868  0.00  0.00     0.003 A 
ATOM     17  C   UNL d   1      22.193  49.065   7.315  0.00  0.00     0.017 A 
ATOM     18  C   UNL d   1      22.787  50.311   7.323  0.00  0.00     0.034 A 
ATOM     19  C   UNL d   1      24.082  50.500   6.901  0.00  0.00     0.046 A 
BRANCH  18  20
ATOM     20  C   UNL d   1      21.984  51.431   7.802  0.00  0.00     0.251 C 
ATOM     21  N   UNL d   1      22.536  52.726   8.023  0.00  0.00    -0.361 N 
ATOM     22  C   UNL d   1      21.594  53.786   8.377  0.00  0.00     0.149 C 
ATOM     23  HN  UNL d   1      23.537  52.904   7.938  1.00  0.00     0.162 HD
ATOM     24  O   UNL d   1      20.757  51.254   8.028  0.00  0.00    -0.268 OA
ENDBRANCH  18  20
ENDBRANCH  10  14
ENDBRANCH   1   8
BRANCH   4  25
ATOM     25  C   UNL d   1      32.980  46.551   8.450  0.00  0.00    -0.017 A 
ATOM     26  C   UNL d   1      34.227  47.142   8.344  0.00  0.00    -0.051 A 
ATOM     27  C   UNL d   1      34.362  48.473   7.693  0.00  0.00     0.049 C 
ATOM     28  C   UNL d   1      35.362  46.499   8.842  0.00  0.00     0.010 A 
ATOM     29  C   UNL d   1      35.265  45.248   9.458  0.00  0.00     0.030 A 
ATOM     30  C   UNL d   1      34.019  44.661   9.562  0.00  0.00     0.030 A 
ATOM     31  C   UNL d   1      32.906  45.316   9.062  0.00  0.00     0.042 A 
BRANCH  30  32
ATOM     32  N   UNL d   1      33.818  43.387  10.173  0.00  0.00    -0.390 N 
ATOM     33  C   UNL d   1      32.596  43.055  10.877  0.00  0.00     0.149 C 
ATOM     34  C   UNL d   1      34.894  42.416  10.068  0.00  0.00     0.149 C 
ENDBRANCH  30  32
ENDBRANCH   4  25
TORSDOF 5
ENDMDL
MODEL 7
REMARK VINA RESULT:      -7.5      2.719      3.887
REMARK  5 active torsions:
REMARK  status: ('A' for Active; 'I' for Inactive)
REMARK       I    between atoms: N_2  and  C_4 
REMARK    1  A    between atoms: C_4  and  C_6 
REMARK    2  A    between atoms: C_10  and  N_11 
REMARK       I    between atoms: N_11  and  C_13 
REMARK       I    between atoms: C_13  and  N_15 
REMARK    3  A    between atoms: N_15  and  C_17 
REMARK    4  A    between atoms: C_20  and  C_21 
REMARK    5  A    between atoms: C_26  and  N_27 
ROOT
ATOM      1  C   UNL d   1      29.993  47.012   8.446  0.00  0.00     0.108 A 
ATOM      2  C   UNL d   1      30.542  45.731   8.383  0.00  0.00     0.049 A 
ATOM      3  C   UNL d   1      31.879  45.512   8.118  0.00  0.00     0.017 A 
ATOM      4  C   UNL d   1      32.655  46.653   7.917  0.00  0.00    -0.010 A 
ATOM      5  C   UNL d   1      32.078  47.924   7.986  0.00  0.00     0.102 A 
ATOM      6  N   UNL d   1      30.760  48.106   8.248  0.00  0.00    -0.351 N 
ATOM      7  HN  UNL d   1      30.359  49.043   8.295  1.00  0.00     0.166 HD
ENDROOT
BRANCH   1   8
ATOM      8  N   UNL d   1      28.600  47.091   8.728  0.00  0.00    -0.294 N 
ATOM      9  C   UNL d   1      27.725  47.818   7.909  0.00  0.00     0.326 C 
ATOM     10  N   UNL d   1      26.345  47.871   8.297  0.00  0.00    -0.309 N 
ATOM     11  O   UNL d   1      28.161  48.392   6.879  0.00  0.00    -0.247 OA
ATOM     12  HN  UNL d   1      26.028  47.401   9.145  1.00  0.00     0.170 HD
ATOM     13  HN  UNL d   1      28.230  46.607   9.545  1.00  0.00     0.172 HD
BRANCH  10  14
ATOM     14  C   UNL d   1      25.425  48.590   7.484  0.00  0.00     0.037 A 
ATOM     15  C   UNL d   1      24.411  47.982   6.772  0.00  0.00     0.029 A 
ATOM     16  C   UNL d   1      23.518  48.681   5.982  0.00  0.00     0.003 A 
ATOM     17  C   UNL d   1      23.616  50.045   5.881  0.00  0.00     0.017 A 
ATOM     18  C   UNL d   1      24.622  50.677   6.584  0.00  0.00     0.034 A 
ATOM     19  C   UNL d   1      25.510  49.977   7.369  0.00  0.00     0.046 A 
BRANCH  18  20
ATOM     20  C   UNL d   1      24.712  52.129   6.464  0.00  0.00     0.251 C 
ATOM     21  N   UNL d   1      25.532  52.916   7.323  0.00  0.00    -0.361 N 
ATOM     22  C   UNL d   1      25.628  54.340   7.009  0.00  0.00     0.149 C 
ATOM     23  HN  UNL d   1      26.026  52.506   8.116  1.00  0.00     0.162 HD
ATOM     24  O   UNL d   1      24.043  52.712   5.569  0.00  0.00    -0.268 OA
ENDBRANCH  18  20
ENDBRANCH  10  14
ENDBRANCH   1   8
BRANCH   4  25
ATOM     25  C   UNL d   1      34.057  46.449   7.639  0.00  0.00    -0.017 A 
ATOM     26  C   UNL d   1      34.925  46.344   8.711  0.00  0.00    -0.051 A 
ATOM     27  C   UNL d   1      34.400  46.441  10.100  0.00  0.00     0.049 C 
ATOM     28  C   UNL d   1      36.292  46.147   8.503  0.00  0.00     0.010 A 
ATOM     29  C   UNL d   1      36.812  46.052   7.209  0.00  0.00     0.030 A 
ATOM     30  C   UNL d   1      35.943  46.158   6.141  0.00  0.00     0.030 A 
ATOM     31  C   UNL d   1      34.592  46.353   6.370  0.00  0.00     0.042 A 
BRANCH  30  32
ATOM     32  N   UNL d   1      36.379  46.074   4.784  0.00  0.00    -0.390 N 
ATOM     33  C   UNL d   1      35.762  45.173   3.831  0.00  0.00     0.149 C 
ATOM     34  C   UNL d   1      37.479  46.932   4.379  0.00  0.00     0.149 C 
ENDBRANCH  30  32
ENDBRANCH   4  25
TORSDOF 5
ENDMDL
MODEL 8
REMARK VINA RESULT:      -7.5      1.900      2.539
REMARK  5 active torsions:
REMARK  status: ('A' for Active; 'I' for Inactive)
REMARK       I    between atoms: N_2  and  C_4 
REMARK    1  A    between atoms: C_4  and  C_6 
REMARK    2  A    between atoms: C_10  and  N_11 
REMARK       I    between atoms: N_11  and  C_13 
REMARK       I    between atoms: C_13  and  N_15 
REMARK    3  A    between atoms: N_15  and  C_17 
REMARK    4  A    between atoms: C_20  and  C_21 
REMARK    5  A    between atoms: C_26  and  N_27 
ROOT
ATOM      1  C   UNL d   1      29.395  46.067   8.707  0.00  0.00     0.108 A 
ATOM      2  C   UNL d   1      29.477  44.676   8.787  0.00  0.00     0.049 A 
ATOM      3  C   UNL d   1      30.682  44.004   8.745  0.00  0.00     0.017 A 
ATOM      4  C   UNL d   1      31.820  44.799   8.617  0.00  0.00    -0.010 A 
ATOM      5  C   UNL d   1      31.707  46.191   8.538  0.00  0.00     0.102 A 
ATOM      6  N   UNL d   1      30.508  46.822   8.582  0.00  0.00    -0.351 N 
ATOM      7  HN  UNL d   1      30.449  47.839   8.524  1.00  0.00     0.166 HD
ENDROOT
BRANCH   1   8
ATOM      8  N   UNL d   1      28.089  46.628   8.764  0.00  0.00    -0.294 N 
ATOM      9  C   UNL d   1      27.719  47.713   7.956  0.00  0.00     0.326 C 
ATOM     10  N   UNL d   1      26.392  48.234   8.114  0.00  0.00    -0.309 N 
ATOM     11  O   UNL d   1      28.541  48.191   7.133  0.00  0.00    -0.247 OA
ATOM     12  HN  UNL d   1      25.755  47.828   8.799  1.00  0.00     0.170 HD
ATOM     13  HN  UNL d   1      27.405  46.232   9.408  1.00  0.00     0.172 HD
BRANCH  10  14
ATOM     14  C   UNL d   1      25.977  49.328   7.303  0.00  0.00     0.037 A 
ATOM     15  C   UNL d   1      25.049  49.207   6.289  0.00  0.00     0.029 A 
ATOM     16  C   UNL d   1      24.647  50.269   5.502  0.00  0.00     0.003 A 
ATOM     17  C   UNL d   1      25.176  51.516   5.714  0.00  0.00     0.017 A 
ATOM     18  C   UNL d   1      26.107  51.663   6.722  0.00  0.00     0.034 A 
ATOM     19  C   UNL d   1      26.505  50.603   7.504  0.00  0.00     0.046 A 
BRANCH  18  20
ATOM     20  C   UNL d   1      26.660  52.997   6.932  0.00  0.00     0.251 C 
ATOM     21  N   UNL d   1      27.264  53.747   5.881  0.00  0.00    -0.361 N 
ATOM     22  C   UNL d   1      27.658  55.118   6.199  0.00  0.00     0.149 C 
ATOM     23  HN  UNL d   1      27.413  53.347   4.954  1.00  0.00     0.162 HD
ATOM     24  O   UNL d   1      26.602  53.511   8.081  0.00  0.00    -0.268 OA
ENDBRANCH  18  20
ENDBRANCH  10  14
ENDBRANCH   1   8
BRANCH   4  25
ATOM     25  C   UNL d   1      33.092  44.118   8.570  0.00  0.00    -0.017 A 
ATOM     26  C   UNL d   1      33.419  43.277   9.619  0.00  0.00    -0.051 A 
ATOM     27  C   UNL d   1      32.467  43.098  10.748  0.00  0.00     0.049 C 
ATOM     28  C   UNL d   1      34.636  42.592   9.627  0.00  0.00     0.010 A 
ATOM     29  C   UNL d   1      35.549  42.740   8.580  0.00  0.00     0.030 A 
ATOM     30  C   UNL d   1      35.220  43.581   7.534  0.00  0.00     0.030 A 
ATOM     31  C   UNL d   1      34.008  44.251   7.546  0.00  0.00     0.042 A 
BRANCH  30  32
ATOM     32  N   UNL d   1      36.085  43.798   6.420  0.00  0.00    -0.390 N 
ATOM     33  C   UNL d   1      37.452  43.317   6.403  0.00  0.00     0.149 C 
ATOM     34  C   UNL d   1      35.547  44.528   5.285  0.00  0.00     0.149 C 
ENDBRANCH  30  32
ENDBRANCH   4  25
TORSDOF 5
ENDMDL
MODEL 9
REMARK VINA RESULT:      -7.5      2.102      2.575
REMARK  5 active torsions:
REMARK  status: ('A' for Active; 'I' for Inactive)
REMARK       I    between atoms: N_2  and  C_4 
REMARK    1  A    between atoms: C_4  and  C_6 
REMARK    2  A    between atoms: C_10  and  N_11 
REMARK       I    between atoms: N_11  and  C_13 
REMARK       I    between atoms: C_13  and  N_15 
REMARK    3  A    between atoms: N_15  and  C_17 
REMARK    4  A    between atoms: C_20  and  C_21 
REMARK    5  A    between atoms: C_26  and  N_27 
ROOT
ATOM      1  C   UNL d   1      28.062  47.687   8.216  0.00  0.00     0.108 A 
ATOM      2  C   UNL d   1      28.225  46.311   8.379  0.00  0.00     0.049 A 
ATOM      3  C   UNL d   1      29.463  45.702   8.328  0.00  0.00     0.017 A 
ATOM      4  C   UNL d   1      30.549  46.547   8.104  0.00  0.00    -0.010 A 
ATOM      5  C   UNL d   1      30.356  47.923   7.945  0.00  0.00     0.102 A 
ATOM      6  N   UNL d   1      29.126  48.491   7.999  0.00  0.00    -0.351 N 
ATOM      7  HN  UNL d   1      29.008  49.497   7.882  1.00  0.00     0.166 HD
ENDROOT
BRANCH   1   8
ATOM      8  N   UNL d   1      26.730  48.181   8.293  0.00  0.00    -0.294 N 
ATOM      9  C   UNL d   1      26.197  49.016   7.300  0.00  0.00     0.326 C 
ATOM     10  N   UNL d   1      24.858  49.494   7.486  0.00  0.00    -0.309 N 
ATOM     11  O   UNL d   1      26.891  49.317   6.296  0.00  0.00    -0.247 OA
ATOM     12  HN  UNL d   1      24.328  49.237   8.318  1.00  0.00     0.170 HD
ATOM     13  HN  UNL d   1      26.149  47.922   9.089  1.00  0.00     0.172 HD
BRANCH  10  14
ATOM     14  C   UNL d   1      24.280  50.335   6.493  0.00  0.00     0.037 A 
ATOM     15  C   UNL d   1      23.626  49.848   5.379  0.00  0.00     0.029 A 
ATOM     16  C   UNL d   1      23.065  50.664   4.416  0.00  0.00     0.003 A 
ATOM     17  C   UNL d   1      23.144  52.027   4.544  0.00  0.00     0.017 A 
ATOM     18  C   UNL d   1      23.793  52.539   5.649  0.00  0.00     0.034 A 
ATOM     19  C   UNL d   1      24.350  51.723   6.606  0.00  0.00     0.046 A 
BRANCH  18  20
ATOM     20  C   UNL d   1      23.867  53.992   5.768  0.00  0.00     0.251 C 
ATOM     21  N   UNL d   1      24.849  54.642   6.571  0.00  0.00    -0.361 N 
ATOM     22  C   UNL d   1      24.891  56.101   6.497  0.00  0.00     0.149 C 
ATOM     23  HN  UNL d   1      25.490  54.116   7.166  1.00  0.00     0.162 HD
ATOM     24  O   UNL d   1      23.037  54.701   5.140  0.00  0.00    -0.268 OA
ENDBRANCH  18  20
ENDBRANCH  10  14
ENDBRANCH   1   8
BRANCH   4  25
ATOM     25  C   UNL d   1      31.854  45.933   8.046  0.00  0.00    -0.017 A 
ATOM     26  C   UNL d   1      32.515  45.921   6.830  0.00  0.00    -0.051 A 
ATOM     27  C   UNL d   1      31.874  46.530   5.634  0.00  0.00     0.049 C 
ATOM     28  C   UNL d   1      33.780  45.340   6.715  0.00  0.00     0.010 A 
ATOM     29  C   UNL d   1      34.406  44.761   7.822  0.00  0.00     0.030 A 
ATOM     30  C   UNL d   1      33.743  44.774   9.034  0.00  0.00     0.030 A 
ATOM     31  C   UNL d   1      32.490  45.355   9.127  0.00  0.00     0.042 A 
BRANCH  30  32
ATOM     32  N   UNL d   1      34.300  44.208  10.220  0.00  0.00    -0.390 N 
ATOM     33  C   UNL d   1      34.701  42.817  10.294  0.00  0.00     0.149 C 
ATOM     34  C   UNL d   1      34.456  45.081  11.371  0.00  0.00     0.149 C 
ENDBRANCH  30  32
ENDBRANCH   4  25
TORSDOF 5
ENDMDL
