MODEL 1
REMARK VINA RESULT:      -8.6      0.000      0.000
REMARK  8 active torsions:
REMARK  status: ('A' for Active; 'I' for Inactive)
REMARK    1  A    between atoms: C_2  and  C_3 
REMARK    2  A    between atoms: C_5  and  N_6 
REMARK       I    between atoms: N_6  and  C_8 
REMARK       I    between atoms: C_8  and  N_10 
REMARK    3  A    between atoms: N_10  and  C_12 
REMARK    4  A    between atoms: C_15  and  C_16 
REMARK    5  A    between atoms: C_20  and  N_21 
REMARK    6  A    between atoms: N_21  and  C_23 
REMARK    7  A    between atoms: C_30  and  N_31 
REMARK    8  A    between atoms: N_34  and  C_35 
ROOT
ATOM      1  C   UNL d   1      31.865  43.814   8.795  0.00  0.00     0.034 A 
ATOM      2  C   UNL d   1      32.413  42.757   8.381  0.00  0.00     0.110 A 
ATOM      3  N   UNL d   1      33.703  42.557   8.464  0.00  0.00    -0.345 N 
ATOM      4  HN  UNL d   1      34.047  41.668   8.101  1.00  0.00     0.167 HD
ATOM      5  C   UNL d   1      34.520  43.293   8.916  0.00  0.00     0.150 A 
ATOM      6  S   UNL d   1      33.390  44.746   9.433  0.00  0.00    -0.052 SA
ENDROOT
BRANCH   1   7
ATOM      7  C   UNL d   1      30.549  44.455   8.912  0.00  0.00    -0.018 A 
ATOM      8  C   UNL d   1      30.292  45.455   7.968  0.00  0.00     0.015 A 
ATOM      9  C   UNL d   1      29.075  46.106   8.010  0.00  0.00     0.030 A 
ATOM     10  C   UNL d   1      28.133  45.775   8.966  0.00  0.00     0.036 A 
ATOM     11  C   UNL d   1      28.404  44.786   9.889  0.00  0.00     0.030 A 
ATOM     12  C   UNL d   1      29.629  44.105   9.876  0.00  0.00     0.015 A 
BRANCH  10  13
ATOM     13  N   UNL d   1      26.910  46.500   8.929  0.00  0.00    -0.309 N 
ATOM     14  C   UNL d   1      26.742  47.693   8.195  0.00  0.00     0.326 C 
ATOM     15  N   UNL d   1      25.453  48.250   8.104  0.00  0.00    -0.293 N 
ATOM     16  O   UNL d   1      27.691  48.284   7.616  0.00  0.00    -0.247 OA
ATOM     17  HN  UNL d   1      24.706  47.788   8.624  1.00  0.00     0.172 HD
ATOM     18  HN  UNL d   1      26.116  46.139   9.458  1.00  0.00     0.170 HD
BRANCH  15  19
ATOM     19  C   UNL d   1      25.103  49.403   7.351  0.00  0.00     0.132 A 
ATOM     20  C   UNL d   1      24.223  49.370   6.298  0.00  0.00     0.085 A 
ATOM     21  C   UNL d   1      24.138  50.662   5.827  0.00  0.00     0.079 A 
ATOM     22  O   UNL d   1      24.922  51.375   6.570  0.00  0.00    -0.241 OA
ATOM     23  N   UNL d   1      25.512  50.679   7.483  0.00  0.00    -0.245 N 
ATOM     24  HN  UNL d   1      26.170  51.031   8.177  1.00  0.00     0.196 HD
BRANCH  21  25
ATOM     25  C   UNL d   1      23.290  51.066   4.685  0.00  0.00     0.063 C 
ATOM     26  C   UNL d   1      22.074  50.152   4.643  0.00  0.00     0.012 C 
ENDBRANCH  21  25
ENDBRANCH  15  19
ENDBRANCH  10  13
ENDBRANCH   1   7
BRANCH   5  27
ATOM     27  N   UNL d   1      35.915  43.414   9.160  0.00  0.00    -0.323 N 
ATOM     28  HN  UNL d   1      36.341  42.762   9.819  1.00  0.00     0.169 HD
BRANCH  27  29
ATOM     29  C   UNL d   1      36.758  44.379   8.550  0.00  0.00     0.111 A 
ATOM     30  N   UNL d   1      37.952  44.083   7.998  0.00  0.00    -0.332 N 
ATOM     31  C   UNL d   1      38.718  45.037   7.431  0.00  0.00     0.080 A 
ATOM     32  HN  UNL d   1      38.283  43.118   8.010  1.00  0.00     0.168 HD
ATOM     33  C   UNL d   1      40.048  44.708   6.817  0.00  0.00     0.089 C 
ATOM     34  N   UNL d   1      38.319  46.322   7.394  0.00  0.00    -0.332 N 
ATOM     35  C   UNL d   1      37.135  46.630   7.938  0.00  0.00     0.108 A 
ATOM     36  HN  UNL d   1      38.902  47.040   6.965  1.00  0.00     0.168 HD
ATOM     37  C   UNL d   1      36.332  45.674   8.524  0.00  0.00     0.097 A 
BRANCH  35  38
ATOM     38  N   UNL d   1      36.698  48.004   7.908  0.00  0.00    -0.364 N 
ATOM     39  C   UNL d   1      35.302  48.328   8.016  0.00  0.00     0.154 C 
ATOM     40  C   UNL d   1      34.950  49.371   6.985  0.00  0.00     0.292 C 
ATOM     41  N   UNL d   1      35.868  50.469   6.920  0.00  0.00     0.091 N 
ATOM     42  C   UNL d   1      36.984  50.376   7.825  0.00  0.00     0.292 C 
ATOM     43  C   UNL d   1      37.697  49.061   7.763  0.00  0.00     0.154 C 
BRANCH  41  44
ATOM     44  C   UNL d   1      36.215  50.894   5.597  0.00  0.00     0.268 C 
ATOM     45  C   UNL d   1      35.323  52.002   5.083  0.00  0.00     0.037 C 
ENDBRANCH  41  44
ENDBRANCH  35  38
ENDBRANCH  27  29
ENDBRANCH   5  27
TORSDOF 8
ENDMDL
MODEL 2
REMARK VINA RESULT:      -8.4      1.978      2.482
REMARK  8 active torsions:
REMARK  status: ('A' for Active; 'I' for Inactive)
REMARK    1  A    between atoms: C_2  and  C_3 
REMARK    2  A    between atoms: C_5  and  N_6 
REMARK       I    between atoms: N_6  and  C_8 
REMARK       I    between atoms: C_8  and  N_10 
REMARK    3  A    between atoms: N_10  and  C_12 
REMARK    4  A    between atoms: C_15  and  C_16 
REMARK    5  A    between atoms: C_20  and  N_21 
REMARK    6  A    between atoms: N_21  and  C_23 
REMARK    7  A    between atoms: C_30  and  N_31 
REMARK    8  A    between atoms: N_34  and  C_35 
ROOT
ATOM      1  C   UNL d   1      30.512  44.777   8.597  0.00  0.00     0.034 A 
ATOM      2  C   UNL d   1      30.697  43.533   8.503  0.00  0.00     0.110 A 
ATOM      3  N   UNL d   1      31.870  42.984   8.688  0.00  0.00    -0.345 N 
ATOM      4  HN  UNL d   1      31.914  41.969   8.590  1.00  0.00     0.167 HD
ATOM      5  C   UNL d   1      32.890  43.533   8.959  0.00  0.00     0.150 A 
ATOM      6  S   UNL d   1      32.273  45.340   9.023  0.00  0.00    -0.052 SA
ENDROOT
BRANCH   1   7
ATOM      7  C   UNL d   1      29.455  45.791   8.487  0.00  0.00    -0.018 A 
ATOM      8  C   UNL d   1      29.823  46.955   7.802  0.00  0.00     0.015 A 
ATOM      9  C   UNL d   1      28.886  47.958   7.655  0.00  0.00     0.030 A 
ATOM     10  C   UNL d   1      27.613  47.812   8.174  0.00  0.00     0.036 A 
ATOM     11  C   UNL d   1      27.269  46.658   8.845  0.00  0.00     0.030 A 
ATOM     12  C   UNL d   1      28.195  45.620   9.014  0.00  0.00     0.015 A 
BRANCH  10  13
ATOM     13  N   UNL d   1      26.717  48.898   7.970  0.00  0.00    -0.309 N 
ATOM     14  C   UNL d   1      25.383  48.729   7.544  0.00  0.00     0.326 C 
ATOM     15  N   UNL d   1      24.537  49.853   7.517  0.00  0.00    -0.293 N 
ATOM     16  O   UNL d   1      24.911  47.618   7.185  0.00  0.00    -0.247 OA
ATOM     17  HN  UNL d   1      24.951  50.755   7.759  1.00  0.00     0.172 HD
ATOM     18  HN  UNL d   1      27.055  49.845   8.142  1.00  0.00     0.170 HD
BRANCH  15  19
ATOM     19  C   UNL d   1      23.156  49.841   7.181  0.00  0.00     0.132 A 
ATOM     20  C   UNL d   1      22.327  50.915   7.388  0.00  0.00     0.085 A 
ATOM     21  C   UNL d   1      21.081  50.530   6.941  0.00  0.00     0.079 A 
ATOM     22  O   UNL d   1      21.206  49.316   6.511  0.00  0.00    -0.241 OA
ATOM     23  N   UNL d   1      22.410  48.866   6.630  0.00  0.00    -0.245 N 
ATOM     24  HN  UNL d   1      22.736  47.940   6.357  1.00  0.00     0.196 HD
BRANCH  21  25
ATOM     25  C   UNL d   1      19.887  51.401   6.985  0.00  0.00     0.063 C 
ATOM     26  C   UNL d   1      20.027  52.347   8.170  0.00  0.00     0.012 C 
ENDBRANCH  21  25
ENDBRANCH  15  19
ENDBRANCH  10  13
ENDBRANCH   1   7
BRANCH   5  27
ATOM     27  N   UNL d   1      34.266  43.287   9.216  0.00  0.00    -0.323 N 
ATOM     28  HN  UNL d   1      34.505  42.727  10.035  1.00  0.00     0.169 HD
BRANCH  27  29
ATOM     29  C   UNL d   1      35.333  43.768   8.413  0.00  0.00     0.111 A 
ATOM     30  N   UNL d   1      36.373  43.005   8.021  0.00  0.00    -0.332 N 
ATOM     31  C   UNL d   1      37.364  43.510   7.260  0.00  0.00     0.080 A 
ATOM     32  HN  UNL d   1      36.411  42.027   8.307  1.00  0.00     0.168 HD
ATOM     33  C   UNL d   1      38.523  42.661   6.823  0.00  0.00     0.089 C 
ATOM     34  N   UNL d   1      37.353  44.796   6.860  0.00  0.00    -0.332 N 
ATOM     35  C   UNL d   1      36.325  45.565   7.242  0.00  0.00     0.108 A 
ATOM     36  HN  UNL d   1      38.106  45.173   6.284  1.00  0.00     0.168 HD
ATOM     37  C   UNL d   1      35.299  45.074   8.021  0.00  0.00     0.097 A 
BRANCH  35  38
ATOM     38  N   UNL d   1      36.304  46.945   6.824  0.00  0.00    -0.364 N 
ATOM     39  C   UNL d   1      36.692  47.988   7.733  0.00  0.00     0.154 C 
ATOM     40  C   UNL d   1      35.698  49.119   7.648  0.00  0.00     0.292 C 
ATOM     41  N   UNL d   1      35.367  49.514   6.311  0.00  0.00     0.091 N 
ATOM     42  C   UNL d   1      36.013  48.745   5.279  0.00  0.00     0.292 C 
ATOM     43  C   UNL d   1      35.880  47.265   5.462  0.00  0.00     0.154 C 
BRANCH  41  44
ATOM     44  C   UNL d   1      33.977  49.764   6.078  0.00  0.00     0.268 C 
ATOM     45  C   UNL d   1      33.078  49.055   7.067  0.00  0.00     0.037 C 
ENDBRANCH  41  44
ENDBRANCH  35  38
ENDBRANCH  27  29
ENDBRANCH   5  27
TORSDOF 8
ENDMDL
MODEL 3
REMARK VINA RESULT:      -8.2      3.832     11.011
REMARK  8 active torsions:
REMARK  status: ('A' for Active; 'I' for Inactive)
REMARK    1  A    between atoms: C_2  and  C_3 
REMARK    2  A    between atoms: C_5  and  N_6 
REMARK       I    between atoms: N_6  and  C_8 
REMARK       I    between atoms: C_8  and  N_10 
REMARK    3  A    between atoms: N_10  and  C_12 
REMARK    4  A    between atoms: C_15  and  C_16 
REMARK    5  A    between atoms: C_20  and  N_21 
REMARK    6  A    between atoms: N_21  and  C_23 
REMARK    7  A    between atoms: C_30  and  N_31 
REMARK    8  A    between atoms: N_34  and  C_35 
ROOT
ATOM      1  C   UNL d   1      28.755  46.208   8.421  0.00  0.00     0.034 A 
ATOM      2  C   UNL d   1      27.603  45.917   8.844  0.00  0.00     0.110 A 
ATOM      3  N   UNL d   1      26.602  46.756   8.780  0.00  0.00    -0.345 N 
ATOM      4  HN  UNL d   1      25.710  46.425   9.149  1.00  0.00     0.167 HD
ATOM      5  C   UNL d   1      26.612  47.861   8.339  0.00  0.00     0.150 A 
ATOM      6  S   UNL d   1      28.443  47.975   7.805  0.00  0.00    -0.052 SA
ENDROOT
BRANCH   1   7
ATOM      7  C   UNL d   1      30.103  45.641   8.284  0.00  0.00    -0.018 A 
ATOM      8  C   UNL d   1      30.828  46.103   7.179  0.00  0.00     0.015 A 
ATOM      9  C   UNL d   1      32.105  45.619   6.979  0.00  0.00     0.030 A 
ATOM     10  C   UNL d   1      32.653  44.698   7.853  0.00  0.00     0.036 A 
ATOM     11  C   UNL d   1      31.923  44.255   8.936  0.00  0.00     0.030 A 
ATOM     12  C   UNL d   1      30.624  44.724   9.170  0.00  0.00     0.015 A 
BRANCH  10  13
ATOM     13  N   UNL d   1      33.975  44.259   7.565  0.00  0.00    -0.309 N 
ATOM     14  C   UNL d   1      35.116  45.063   7.766  0.00  0.00     0.326 C 
ATOM     15  N   UNL d   1      36.387  44.484   7.591  0.00  0.00    -0.293 N 
ATOM     16  O   UNL d   1      35.054  46.277   8.095  0.00  0.00    -0.247 OA
ATOM     17  HN  UNL d   1      36.419  43.515   7.271  1.00  0.00     0.172 HD
ATOM     18  HN  UNL d   1      34.104  43.317   7.196  1.00  0.00     0.170 HD
BRANCH  15  19
ATOM     19  C   UNL d   1      37.630  45.134   7.820  0.00  0.00     0.132 A 
ATOM     20  C   UNL d   1      38.019  46.264   7.146  0.00  0.00     0.085 A 
ATOM     21  C   UNL d   1      39.264  46.595   7.635  0.00  0.00     0.079 A 
ATOM     22  O   UNL d   1      39.554  45.704   8.528  0.00  0.00    -0.241 OA
ATOM     23  N   UNL d   1      38.623  44.823   8.674  0.00  0.00    -0.245 N 
ATOM     24  HN  UNL d   1      38.637  44.033   9.319  1.00  0.00     0.196 HD
BRANCH  21  25
ATOM     25  C   UNL d   1      40.047  47.759   7.170  0.00  0.00     0.063 C 
ATOM     26  C   UNL d   1      39.231  49.019   7.425  0.00  0.00     0.012 C 
ENDBRANCH  21  25
ENDBRANCH  15  19
ENDBRANCH  10  13
ENDBRANCH   1   7
BRANCH   5  27
ATOM     27  N   UNL d   1      25.780  48.992   8.116  0.00  0.00    -0.323 N 
ATOM     28  HN  UNL d   1      25.039  49.178   8.792  1.00  0.00     0.169 HD
BRANCH  27  29
ATOM     29  C   UNL d   1      25.909  49.881   7.018  0.00  0.00     0.111 A 
ATOM     30  N   UNL d   1      25.572  49.557   5.753  0.00  0.00    -0.332 N 
ATOM     31  C   UNL d   1      25.716  50.437   4.743  0.00  0.00     0.080 A 
ATOM     32  HN  UNL d   1      25.201  48.627   5.558  1.00  0.00     0.168 HD
ATOM     33  C   UNL d   1      25.341  50.077   3.334  0.00  0.00     0.089 C 
ATOM     34  N   UNL d   1      26.201  51.675   4.956  0.00  0.00    -0.332 N 
ATOM     35  C   UNL d   1      26.539  52.010   6.208  0.00  0.00     0.108 A 
ATOM     36  HN  UNL d   1      26.308  52.337   4.188  1.00  0.00     0.168 HD
ATOM     37  C   UNL d   1      26.403  51.129   7.260  0.00  0.00     0.097 A 
BRANCH  35  38
ATOM     38  N   UNL d   1      27.064  53.331   6.450  0.00  0.00    -0.364 N 
ATOM     39  C   UNL d   1      28.324  53.504   7.119  0.00  0.00     0.154 C 
ATOM     40  C   UNL d   1      28.194  54.591   8.157  0.00  0.00     0.292 C 
ATOM     41  N   UNL d   1      27.539  55.776   7.690  0.00  0.00     0.091 N 
ATOM     42  C   UNL d   1      27.090  55.718   6.323  0.00  0.00     0.292 C 
ATOM     43  C   UNL d   1      26.293  54.491   6.006  0.00  0.00     0.154 C 
BRANCH  41  44
ATOM     44  C   UNL d   1      26.589  56.344   8.599  0.00  0.00     0.268 C 
ATOM     45  C   UNL d   1      25.795  55.298   9.349  0.00  0.00     0.037 C 
ENDBRANCH  41  44
ENDBRANCH  35  38
ENDBRANCH  27  29
ENDBRANCH   5  27
TORSDOF 8
ENDMDL
MODEL 4
REMARK VINA RESULT:      -8.2      4.777     12.554
REMARK  8 active torsions:
REMARK  status: ('A' for Active; 'I' for Inactive)
REMARK    1  A    between atoms: C_2  and  C_3 
REMARK    2  A    between atoms: C_5  and  N_6 
REMARK       I    between atoms: N_6  and  C_8 
REMARK       I    between atoms: C_8  and  N_10 
REMARK    3  A    between atoms: N_10  and  C_12 
REMARK    4  A    between atoms: C_15  and  C_16 
REMARK    5  A    between atoms: C_20  and  N_21 
REMARK    6  A    between atoms: N_21  and  C_23 
REMARK    7  A    between atoms: C_30  and  N_31 
REMARK    8  A    between atoms: N_34  and  C_35 
ROOT
ATOM      1  C   UNL d   1      28.550  49.959   6.622  0.00  0.00     0.034 A 
ATOM      2  C   UNL d   1      28.765  51.177   6.868  0.00  0.00     0.110 A 
ATOM      3  N   UNL d   1      28.206  52.140   6.181  0.00  0.00    -0.345 N 
ATOM      4  HN  UNL d   1      28.445  53.092   6.459  1.00  0.00     0.167 HD
ATOM      5  C   UNL d   1      27.451  52.031   5.268  0.00  0.00     0.150 A 
ATOM      6  S   UNL d   1      27.347  50.126   5.164  0.00  0.00    -0.052 SA
ENDROOT
BRANCH   1   7
ATOM      7  C   UNL d   1      28.917  48.614   7.083  0.00  0.00    -0.018 A 
ATOM      8  C   UNL d   1      29.968  48.015   6.380  0.00  0.00     0.015 A 
ATOM      9  C   UNL d   1      30.374  46.749   6.752  0.00  0.00     0.030 A 
ATOM     10  C   UNL d   1      29.752  46.090   7.797  0.00  0.00     0.036 A 
ATOM     11  C   UNL d   1      28.718  46.696   8.477  0.00  0.00     0.030 A 
ATOM     12  C   UNL d   1      28.280  47.980   8.127  0.00  0.00     0.015 A 
BRANCH  10  13
ATOM     13  N   UNL d   1      30.241  44.790   8.107  0.00  0.00    -0.309 N 
ATOM     14  C   UNL d   1      31.557  44.546   8.551  0.00  0.00     0.326 C 
ATOM     15  N   UNL d   1      31.895  43.247   8.973  0.00  0.00    -0.293 N 
ATOM     16  O   UNL d   1      32.447  45.437   8.590  0.00  0.00    -0.247 OA
ATOM     17  HN  UNL d   1      31.178  42.525   8.884  1.00  0.00     0.172 HD
ATOM     18  HN  UNL d   1      29.608  43.997   8.003  1.00  0.00     0.170 HD
BRANCH  15  19
ATOM     19  C   UNL d   1      33.150  42.853   9.511  0.00  0.00     0.132 A 
ATOM     20  C   UNL d   1      33.575  41.548   9.539  0.00  0.00     0.085 A 
ATOM     21  C   UNL d   1      34.822  41.562  10.125  0.00  0.00     0.079 A 
ATOM     22  O   UNL d   1      35.079  42.799  10.408  0.00  0.00    -0.241 OA
ATOM     23  N   UNL d   1      34.125  43.597  10.064  0.00  0.00    -0.245 N 
ATOM     24  HN  UNL d   1      34.112  44.609  10.190  1.00  0.00     0.196 HD
BRANCH  21  25
ATOM     25  C   UNL d   1      35.638  40.351  10.352  0.00  0.00     0.063 C 
ATOM     26  C   UNL d   1      34.700  39.188  10.646  0.00  0.00     0.012 C 
ENDBRANCH  21  25
ENDBRANCH  15  19
ENDBRANCH  10  13
ENDBRANCH   1   7
BRANCH   5  27
ATOM     27  N   UNL d   1      26.692  52.793   4.338  0.00  0.00    -0.323 N 
ATOM     28  HN  UNL d   1      27.091  53.670   4.004  1.00  0.00     0.169 HD
BRANCH  27  29
ATOM     29  C   UNL d   1      25.417  52.417   3.842  0.00  0.00     0.111 A 
ATOM     30  N   UNL d   1      25.110  52.380   2.529  0.00  0.00    -0.332 N 
ATOM     31  C   UNL d   1      23.882  52.018   2.107  0.00  0.00     0.080 A 
ATOM     32  HN  UNL d   1      25.821  52.631   1.842  1.00  0.00     0.168 HD
ATOM     33  C   UNL d   1      23.539  51.977   0.646  0.00  0.00     0.089 C 
ATOM     34  N   UNL d   1      22.914  51.679   2.980  0.00  0.00    -0.332 N 
ATOM     35  C   UNL d   1      23.206  51.711   4.287  0.00  0.00     0.108 A 
ATOM     36  HN  UNL d   1      21.987  51.406   2.656  1.00  0.00     0.168 HD
ATOM     37  C   UNL d   1      24.454  52.078   4.745  0.00  0.00     0.097 A 
BRANCH  35  38
ATOM     38  N   UNL d   1      22.178  51.354   5.232  0.00  0.00    -0.364 N 
ATOM     39  C   UNL d   1      22.176  51.915   6.555  0.00  0.00     0.154 C 
ATOM     40  C   UNL d   1      21.907  50.825   7.561  0.00  0.00     0.292 C 
ATOM     41  N   UNL d   1      20.812  49.966   7.219  0.00  0.00     0.091 N 
ATOM     42  C   UNL d   1      20.176  50.270   5.963  0.00  0.00     0.292 C 
ATOM     43  C   UNL d   1      21.138  50.411   4.824  0.00  0.00     0.154 C 
BRANCH  41  44
ATOM     44  C   UNL d   1      21.042  48.570   7.441  0.00  0.00     0.268 C 
ATOM     45  C   UNL d   1      22.496  48.183   7.294  0.00  0.00     0.037 C 
ENDBRANCH  41  44
ENDBRANCH  35  38
ENDBRANCH  27  29
ENDBRANCH   5  27
TORSDOF 8
ENDMDL
MODEL 5
REMARK VINA RESULT:      -8.1      1.990      2.189
REMARK  8 active torsions:
REMARK  status: ('A' for Active; 'I' for Inactive)
REMARK    1  A    between atoms: C_2  and  C_3 
REMARK    2  A    between atoms: C_5  and  N_6 
REMARK       I    between atoms: N_6  and  C_8 
REMARK       I    between atoms: C_8  and  N_10 
REMARK    3  A    between atoms: N_10  and  C_12 
REMARK    4  A    between atoms: C_15  and  C_16 
REMARK    5  A    between atoms: C_20  and  N_21 
REMARK    6  A    between atoms: N_21  and  C_23 
REMARK    7  A    between atoms: C_30  and  N_31 
REMARK    8  A    between atoms: N_34  and  C_35 
ROOT
ATOM      1  C   UNL d   1      31.738  43.752   8.769  0.00  0.00     0.034 A 
ATOM      2  C   UNL d   1      32.237  42.624   8.505  0.00  0.00     0.110 A 
ATOM      3  N   UNL d   1      33.527  42.411   8.509  0.00  0.00    -0.345 N 
ATOM      4  HN  UNL d   1      33.829  41.463   8.283  1.00  0.00     0.167 HD
ATOM      5  C   UNL d   1      34.389  43.196   8.747  0.00  0.00     0.150 A 
ATOM      6  S   UNL d   1      33.323  44.744   9.092  0.00  0.00    -0.052 SA
ENDROOT
BRANCH   1   7
ATOM      7  C   UNL d   1      30.443  44.435   8.885  0.00  0.00    -0.018 A 
ATOM      8  C   UNL d   1      30.252  45.494   7.990  0.00  0.00     0.015 A 
ATOM      9  C   UNL d   1      29.060  46.188   8.034  0.00  0.00     0.030 A 
ATOM     10  C   UNL d   1      28.078  45.842   8.945  0.00  0.00     0.036 A 
ATOM     11  C   UNL d   1      28.285  44.796   9.818  0.00  0.00     0.030 A 
ATOM     12  C   UNL d   1      29.483  44.069   9.802  0.00  0.00     0.015 A 
BRANCH  10  13
ATOM     13  N   UNL d   1      26.884  46.614   8.914  0.00  0.00    -0.309 N 
ATOM     14  C   UNL d   1      26.756  47.809   8.174  0.00  0.00     0.326 C 
ATOM     15  N   UNL d   1      25.490  48.417   8.090  0.00  0.00    -0.293 N 
ATOM     16  O   UNL d   1      27.723  48.359   7.583  0.00  0.00    -0.247 OA
ATOM     17  HN  UNL d   1      24.729  47.987   8.620  1.00  0.00     0.172 HD
ATOM     18  HN  UNL d   1      26.081  46.288   9.451  1.00  0.00     0.170 HD
BRANCH  15  19
ATOM     19  C   UNL d   1      25.179  49.578   7.333  0.00  0.00     0.132 A 
ATOM     20  C   UNL d   1      24.185  49.611   6.387  0.00  0.00     0.085 A 
ATOM     21  C   UNL d   1      24.183  50.890   5.875  0.00  0.00     0.079 A 
ATOM     22  O   UNL d   1      25.118  51.534   6.496  0.00  0.00    -0.241 OA
ATOM     23  N   UNL d   1      25.733  50.804   7.365  0.00  0.00    -0.245 N 
ATOM     24  HN  UNL d   1      26.500  51.103   7.967  1.00  0.00     0.196 HD
BRANCH  21  25
ATOM     25  C   UNL d   1      23.257  51.351   4.819  0.00  0.00     0.063 C 
ATOM     26  C   UNL d   1      22.337  50.195   4.449  0.00  0.00     0.012 C 
ENDBRANCH  21  25
ENDBRANCH  15  19
ENDBRANCH  10  13
ENDBRANCH   1   7
BRANCH   5  27
ATOM     27  N   UNL d   1      35.801  43.323   8.841  0.00  0.00    -0.323 N 
ATOM     28  HN  UNL d   1      36.286  42.749   9.531  1.00  0.00     0.169 HD
BRANCH  27  29
ATOM     29  C   UNL d   1      36.585  44.194   8.041  0.00  0.00     0.111 A 
ATOM     30  N   UNL d   1      37.891  44.442   8.269  0.00  0.00    -0.332 N 
ATOM     31  C   UNL d   1      38.593  45.280   7.480  0.00  0.00     0.080 A 
ATOM     32  HN  UNL d   1      38.357  43.985   9.053  1.00  0.00     0.168 HD
ATOM     33  C   UNL d   1      40.047  45.557   7.733  0.00  0.00     0.089 C 
ATOM     34  N   UNL d   1      38.017  45.904   6.435  0.00  0.00    -0.332 N 
ATOM     35  C   UNL d   1      36.720  45.666   6.197  0.00  0.00     0.108 A 
ATOM     36  HN  UNL d   1      38.552  46.538   5.842  1.00  0.00     0.168 HD
ATOM     37  C   UNL d   1      35.979  44.813   6.988  0.00  0.00     0.097 A 
BRANCH  35  38
ATOM     38  N   UNL d   1      36.091  46.331   5.083  0.00  0.00    -0.364 N 
ATOM     39  C   UNL d   1      35.882  45.635   3.843  0.00  0.00     0.154 C 
ATOM     40  C   UNL d   1      36.284  46.526   2.695  0.00  0.00     0.292 C 
ATOM     41  N   UNL d   1      35.778  47.864   2.782  0.00  0.00     0.091 N 
ATOM     42  C   UNL d   1      34.998  48.137   3.962  0.00  0.00     0.292 C 
ATOM     43  C   UNL d   1      35.670  47.722   5.234  0.00  0.00     0.154 C 
BRANCH  41  44
ATOM     44  C   UNL d   1      36.714  48.892   2.443  0.00  0.00     0.268 C 
ATOM     45  C   UNL d   1      37.466  48.602   1.162  0.00  0.00     0.037 C 
ENDBRANCH  41  44
ENDBRANCH  35  38
ENDBRANCH  27  29
ENDBRANCH   5  27
TORSDOF 8
ENDMDL
MODEL 6
REMARK VINA RESULT:      -8.1      2.271      4.809
REMARK  8 active torsions:
REMARK  status: ('A' for Active; 'I' for Inactive)
REMARK    1  A    between atoms: C_2  and  C_3 
REMARK    2  A    between atoms: C_5  and  N_6 
REMARK       I    between atoms: N_6  and  C_8 
REMARK       I    between atoms: C_8  and  N_10 
REMARK    3  A    between atoms: N_10  and  C_12 
REMARK    4  A    between atoms: C_15  and  C_16 
REMARK    5  A    between atoms: C_20  and  N_21 
REMARK    6  A    between atoms: N_21  and  C_23 
REMARK    7  A    between atoms: C_30  and  N_31 
REMARK    8  A    between atoms: N_34  and  C_35 
ROOT
ATOM      1  C   UNL d   1      32.657  48.177   6.013  0.00  0.00     0.034 A 
ATOM      2  C   UNL d   1      33.294  48.233   4.926  0.00  0.00     0.110 A 
ATOM      3  N   UNL d   1      34.574  47.973   4.851  0.00  0.00    -0.345 N 
ATOM      4  HN  UNL d   1      34.997  48.046   3.926  1.00  0.00     0.167 HD
ATOM      5  C   UNL d   1      35.301  47.661   5.740  0.00  0.00     0.150 A 
ATOM      6  S   UNL d   1      34.056  47.670   7.189  0.00  0.00    -0.052 SA
ENDROOT
BRANCH   1   7
ATOM      7  C   UNL d   1      31.308  48.366   6.562  0.00  0.00    -0.018 A 
ATOM      8  C   UNL d   1      30.567  47.190   6.727  0.00  0.00     0.015 A 
ATOM      9  C   UNL d   1      29.289  47.283   7.239  0.00  0.00     0.030 A 
ATOM     10  C   UNL d   1      28.755  48.511   7.581  0.00  0.00     0.036 A 
ATOM     11  C   UNL d   1      29.500  49.659   7.411  0.00  0.00     0.030 A 
ATOM     12  C   UNL d   1      30.801  49.603   6.893  0.00  0.00     0.015 A 
BRANCH  10  13
ATOM     13  N   UNL d   1      27.431  48.505   8.101  0.00  0.00    -0.309 N 
ATOM     14  C   UNL d   1      26.307  48.925   7.358  0.00  0.00     0.326 C 
ATOM     15  N   UNL d   1      25.027  48.739   7.912  0.00  0.00    -0.293 N 
ATOM     16  O   UNL d   1      26.395  49.458   6.221  0.00  0.00    -0.247 OA
ATOM     17  HN  UNL d   1      24.977  48.355   8.857  1.00  0.00     0.172 HD
ATOM     18  HN  UNL d   1      27.287  48.181   9.057  1.00  0.00     0.170 HD
BRANCH  15  19
ATOM     19  C   UNL d   1      23.796  49.041   7.268  0.00  0.00     0.132 A 
ATOM     20  C   UNL d   1      22.577  48.663   7.771  0.00  0.00     0.085 A 
ATOM     21  C   UNL d   1      21.633  49.131   6.883  0.00  0.00     0.079 A 
ATOM     22  O   UNL d   1      22.284  49.735   5.942  0.00  0.00    -0.241 OA
ATOM     23  N   UNL d   1      23.561  49.710   6.124  0.00  0.00    -0.245 N 
ATOM     24  HN  UNL d   1      24.266  50.121   5.512  1.00  0.00     0.196 HD
BRANCH  21  25
ATOM     25  C   UNL d   1      20.177  48.934   7.051  0.00  0.00     0.063 C 
ATOM     26  C   UNL d   1      19.937  48.245   8.387  0.00  0.00     0.012 C 
ENDBRANCH  21  25
ENDBRANCH  15  19
ENDBRANCH  10  13
ENDBRANCH   1   7
BRANCH   5  27
ATOM     27  N   UNL d   1      36.653  47.325   6.023  0.00  0.00    -0.323 N 
ATOM     28  HN  UNL d   1      37.381  47.956   5.687  1.00  0.00     0.169 HD
BRANCH  27  29
ATOM     29  C   UNL d   1      37.061  46.170   6.740  0.00  0.00     0.111 A 
ATOM     30  N   UNL d   1      38.308  45.658   6.680  0.00  0.00    -0.332 N 
ATOM     31  C   UNL d   1      38.646  44.557   7.379  0.00  0.00     0.080 A 
ATOM     32  HN  UNL d   1      39.007  46.113   6.094  1.00  0.00     0.168 HD
ATOM     33  C   UNL d   1      40.033  43.985   7.314  0.00  0.00     0.089 C 
ATOM     34  N   UNL d   1      37.754  43.925   8.165  0.00  0.00    -0.332 N 
ATOM     35  C   UNL d   1      36.512  44.424   8.234  0.00  0.00     0.108 A 
ATOM     36  HN  UNL d   1      38.015  43.092   8.692  1.00  0.00     0.168 HD
ATOM     37  C   UNL d   1      36.139  45.549   7.529  0.00  0.00     0.097 A 
BRANCH  35  38
ATOM     38  N   UNL d   1      35.546  43.754   9.069  0.00  0.00    -0.364 N 
ATOM     39  C   UNL d   1      35.293  42.349   8.908  0.00  0.00     0.154 C 
ATOM     40  C   UNL d   1      33.806  42.102   8.926  0.00  0.00     0.292 C 
ATOM     41  N   UNL d   1      33.111  42.770   9.987  0.00  0.00     0.091 N 
ATOM     42  C   UNL d   1      33.944  43.583  10.835  0.00  0.00     0.292 C 
ATOM     43  C   UNL d   1      34.826  44.528  10.078  0.00  0.00     0.154 C 
BRANCH  41  44
ATOM     44  C   UNL d   1      31.873  43.383   9.612  0.00  0.00     0.268 C 
ATOM     45  C   UNL d   1      31.771  43.639   8.125  0.00  0.00     0.037 C 
ENDBRANCH  41  44
ENDBRANCH  35  38
ENDBRANCH  27  29
ENDBRANCH   5  27
TORSDOF 8
ENDMDL
MODEL 7
REMARK VINA RESULT:      -8.1      3.607      5.083
REMARK  8 active torsions:
REMARK  status: ('A' for Active; 'I' for Inactive)
REMARK    1  A    between atoms: C_2  and  C_3 
REMARK    2  A    between atoms: C_5  and  N_6 
REMARK       I    between atoms: N_6  and  C_8 
REMARK       I    between atoms: C_8  and  N_10 
REMARK    3  A    between atoms: N_10  and  C_12 
REMARK    4  A    between atoms: C_15  and  C_16 
REMARK    5  A    between atoms: C_20  and  N_21 
REMARK    6  A    between atoms: N_21  and  C_23 
REMARK    7  A    between atoms: C_30  and  N_31 
REMARK    8  A    between atoms: N_34  and  C_35 
ROOT
ATOM      1  C   UNL d   1      30.045  46.276   8.128  0.00  0.00     0.034 A 
ATOM      2  C   UNL d   1      29.568  45.421   8.922  0.00  0.00     0.110 A 
ATOM      3  N   UNL d   1      30.074  44.221   9.046  0.00  0.00    -0.345 N 
ATOM      4  HN  UNL d   1      29.616  43.604   9.717  1.00  0.00     0.167 HD
ATOM      5  C   UNL d   1      31.009  43.768   8.467  0.00  0.00     0.150 A 
ATOM      6  S   UNL d   1      31.474  45.273   7.384  0.00  0.00    -0.052 SA
ENDROOT
BRANCH   1   7
ATOM      7  C   UNL d   1      29.840  47.656   7.669  0.00  0.00    -0.018 A 
ATOM      8  C   UNL d   1      30.953  48.495   7.801  0.00  0.00     0.015 A 
ATOM      9  C   UNL d   1      30.841  49.808   7.391  0.00  0.00     0.030 A 
ATOM     10  C   UNL d   1      29.655  50.282   6.863  0.00  0.00     0.036 A 
ATOM     11  C   UNL d   1      28.569  49.441   6.741  0.00  0.00     0.030 A 
ATOM     12  C   UNL d   1      28.646  48.102   7.146  0.00  0.00     0.015 A 
BRANCH  10  13
ATOM     13  N   UNL d   1      29.637  51.649   6.468  0.00  0.00    -0.309 N 
ATOM     14  C   UNL d   1      28.598  52.538   6.812  0.00  0.00     0.326 C 
ATOM     15  N   UNL d   1      28.748  53.902   6.501  0.00  0.00    -0.293 N 
ATOM     16  O   UNL d   1      27.539  52.170   7.386  0.00  0.00    -0.247 OA
ATOM     17  HN  UNL d   1      29.588  54.174   5.987  1.00  0.00     0.172 HD
ATOM     18  HN  UNL d   1      30.415  52.003   5.911  1.00  0.00     0.170 HD
BRANCH  15  19
ATOM     19  C   UNL d   1      27.831  54.933   6.839  0.00  0.00     0.132 A 
ATOM     20  C   UNL d   1      27.690  55.421   8.113  0.00  0.00     0.085 A 
ATOM     21  C   UNL d   1      26.721  56.399   8.047  0.00  0.00     0.079 A 
ATOM     22  O   UNL d   1      26.342  56.454   6.810  0.00  0.00    -0.241 OA
ATOM     23  N   UNL d   1      26.968  55.611   6.059  0.00  0.00    -0.245 N 
ATOM     24  HN  UNL d   1      26.832  55.481   5.057  1.00  0.00     0.196 HD
BRANCH  21  25
ATOM     25  C   UNL d   1      26.262  57.182   9.213  0.00  0.00     0.063 C 
ATOM     26  C   UNL d   1      26.097  56.234  10.393  0.00  0.00     0.012 C 
ENDBRANCH  21  25
ENDBRANCH  15  19
ENDBRANCH  10  13
ENDBRANCH   1   7
BRANCH   5  27
ATOM     27  N   UNL d   1      31.794  42.590   8.344  0.00  0.00    -0.323 N 
ATOM     28  HN  UNL d   1      31.337  41.748   7.994  1.00  0.00     0.169 HD
BRANCH  27  29
ATOM     29  C   UNL d   1      33.171  42.503   8.675  0.00  0.00     0.111 A 
ATOM     30  N   UNL d   1      33.711  41.468   9.352  0.00  0.00    -0.332 N 
ATOM     31  C   UNL d   1      35.026  41.433   9.644  0.00  0.00     0.080 A 
ATOM     32  HN  UNL d   1      33.112  40.698   9.648  1.00  0.00     0.168 HD
ATOM     33  C   UNL d   1      35.628  40.282  10.399  0.00  0.00     0.089 C 
ATOM     34  N   UNL d   1      35.853  42.429   9.272  0.00  0.00    -0.332 N 
ATOM     35  C   UNL d   1      35.330  43.462   8.599  0.00  0.00     0.108 A 
ATOM     36  HN  UNL d   1      36.847  42.397   9.496  1.00  0.00     0.168 HD
ATOM     37  C   UNL d   1      33.988  43.523   8.286  0.00  0.00     0.097 A 
BRANCH  35  38
ATOM     38  N   UNL d   1      36.204  44.536   8.197  0.00  0.00    -0.364 N 
ATOM     39  C   UNL d   1      36.372  45.691   9.036  0.00  0.00     0.154 C 
ATOM     40  C   UNL d   1      36.302  46.938   8.191  0.00  0.00     0.292 C 
ATOM     41  N   UNL d   1      37.090  46.884   6.995  0.00  0.00     0.091 N 
ATOM     42  C   UNL d   1      37.788  45.641   6.789  0.00  0.00     0.292 C 
ATOM     43  C   UNL d   1      36.913  44.434   6.924  0.00  0.00     0.154 C 
BRANCH  41  44
ATOM     44  C   UNL d   1      36.453  47.404   5.824  0.00  0.00     0.268 C 
ATOM     45  C   UNL d   1      35.016  46.951   5.686  0.00  0.00     0.037 C 
ENDBRANCH  41  44
ENDBRANCH  35  38
ENDBRANCH  27  29
ENDBRANCH   5  27
TORSDOF 8
ENDMDL
MODEL 8
REMARK VINA RESULT:      -8.0      1.870      2.186
REMARK  8 active torsions:
REMARK  status: ('A' for Active; 'I' for Inactive)
REMARK    1  A    between atoms: C_2  and  C_3 
REMARK    2  A    between atoms: C_5  and  N_6 
REMARK       I    between atoms: N_6  and  C_8 
REMARK       I    between atoms: C_8  and  N_10 
REMARK    3  A    between atoms: N_10  and  C_12 
REMARK    4  A    between atoms: C_15  and  C_16 
REMARK    5  A    between atoms: C_20  and  N_21 
REMARK    6  A    between atoms: N_21  and  C_23 
REMARK    7  A    between atoms: C_30  and  N_31 
REMARK    8  A    between atoms: N_34  and  C_35 
ROOT
ATOM      1  C   UNL d   1      31.722  44.012   8.983  0.00  0.00     0.034 A 
ATOM      2  C   UNL d   1      32.393  43.074   9.494  0.00  0.00     0.110 A 
ATOM      3  N   UNL d   1      33.629  42.828   9.147  0.00  0.00    -0.345 N 
ATOM      4  HN  UNL d   1      34.085  42.048   9.620  1.00  0.00     0.167 HD
ATOM      5  C   UNL d   1      34.284  43.412   8.342  0.00  0.00     0.150 A 
ATOM      6  S   UNL d   1      33.009  44.721   7.782  0.00  0.00    -0.052 SA
ENDROOT
BRANCH   1   7
ATOM      7  C   UNL d   1      30.394  44.637   9.043  0.00  0.00    -0.018 A 
ATOM      8  C   UNL d   1      30.189  45.676   8.128  0.00  0.00     0.015 A 
ATOM      9  C   UNL d   1      28.966  46.316   8.120  0.00  0.00     0.030 A 
ATOM     10  C   UNL d   1      27.968  45.937   8.998  0.00  0.00     0.036 A 
ATOM     11  C   UNL d   1      28.189  44.911   9.892  0.00  0.00     0.030 A 
ATOM     12  C   UNL d   1      29.418  44.239   9.929  0.00  0.00     0.015 A 
BRANCH  10  13
ATOM     13  N   UNL d   1      26.743  46.655   8.913  0.00  0.00    -0.309 N 
ATOM     14  C   UNL d   1      26.572  47.799   8.106  0.00  0.00     0.326 C 
ATOM     15  N   UNL d   1      25.283  48.346   7.977  0.00  0.00    -0.293 N 
ATOM     16  O   UNL d   1      27.521  48.356   7.492  0.00  0.00    -0.247 OA
ATOM     17  HN  UNL d   1      24.535  47.915   8.524  1.00  0.00     0.172 HD
ATOM     18  HN  UNL d   1      25.949  46.326   9.462  1.00  0.00     0.170 HD
BRANCH  15  19
ATOM     19  C   UNL d   1      24.931  49.449   7.153  0.00  0.00     0.132 A 
ATOM     20  C   UNL d   1      24.566  49.312   5.837  0.00  0.00     0.085 A 
ATOM     21  C   UNL d   1      24.300  50.583   5.377  0.00  0.00     0.079 A 
ATOM     22  O   UNL d   1      24.503  51.383   6.374  0.00  0.00    -0.241 OA
ATOM     23  N   UNL d   1      24.875  50.761   7.443  0.00  0.00    -0.245 N 
ATOM     24  HN  UNL d   1      25.089  51.188   8.344  1.00  0.00     0.196 HD
BRANCH  21  25
ATOM     25  C   UNL d   1      23.873  50.885   3.994  0.00  0.00     0.063 C 
ATOM     26  C   UNL d   1      25.026  51.571   3.274  0.00  0.00     0.012 C 
ENDBRANCH  21  25
ENDBRANCH  15  19
ENDBRANCH  10  13
ENDBRANCH   1   7
BRANCH   5  27
ATOM     27  N   UNL d   1      35.570  43.432   7.738  0.00  0.00    -0.323 N 
ATOM     28  HN  UNL d   1      36.289  42.823   8.129  1.00  0.00     0.169 HD
BRANCH  27  29
ATOM     29  C   UNL d   1      35.925  44.241   6.628  0.00  0.00     0.111 A 
ATOM     30  N   UNL d   1      35.574  43.958   5.357  0.00  0.00    -0.332 N 
ATOM     31  C   UNL d   1      35.937  44.759   4.336  0.00  0.00     0.080 A 
ATOM     32  HN  UNL d   1      35.023  43.121   5.165  1.00  0.00     0.168 HD
ATOM     33  C   UNL d   1      35.548  44.444   2.920  0.00  0.00     0.089 C 
ATOM     34  N   UNL d   1      36.664  45.873   4.544  0.00  0.00    -0.332 N 
ATOM     35  C   UNL d   1      37.019  46.167   5.802  0.00  0.00     0.108 A 
ATOM     36  HN  UNL d   1      36.937  46.476   3.768  1.00  0.00     0.168 HD
ATOM     37  C   UNL d   1      36.660  45.365   6.866  0.00  0.00     0.097 A 
BRANCH  35  38
ATOM     38  N   UNL d   1      37.800  47.355   6.039  0.00  0.00    -0.364 N 
ATOM     39  C   UNL d   1      38.511  47.526   7.276  0.00  0.00     0.154 C 
ATOM     40  C   UNL d   1      38.295  48.927   7.788  0.00  0.00     0.292 C 
ATOM     41  N   UNL d   1      38.461  49.949   6.798  0.00  0.00     0.091 N 
ATOM     42  C   UNL d   1      38.776  49.464   5.479  0.00  0.00     0.292 C 
ATOM     43  C   UNL d   1      37.856  48.384   5.002  0.00  0.00     0.154 C 
BRANCH  41  44
ATOM     44  C   UNL d   1      37.477  50.988   6.825  0.00  0.00     0.268 C 
ATOM     45  C   UNL d   1      37.798  52.076   7.825  0.00  0.00     0.037 C 
ENDBRANCH  41  44
ENDBRANCH  35  38
ENDBRANCH  27  29
ENDBRANCH   5  27
TORSDOF 8
ENDMDL
MODEL 9
REMARK VINA RESULT:      -7.9      4.040     11.343
REMARK  8 active torsions:
REMARK  status: ('A' for Active; 'I' for Inactive)
REMARK    1  A    between atoms: C_2  and  C_3 
REMARK    2  A    between atoms: C_5  and  N_6 
REMARK       I    between atoms: N_6  and  C_8 
REMARK       I    between atoms: C_8  and  N_10 
REMARK    3  A    between atoms: N_10  and  C_12 
REMARK    4  A    between atoms: C_15  and  C_16 
REMARK    5  A    between atoms: C_20  and  N_21 
REMARK    6  A    between atoms: N_21  and  C_23 
REMARK    7  A    between atoms: C_30  and  N_31 
REMARK    8  A    between atoms: N_34  and  C_35 
ROOT
ATOM      1  C   UNL d   1      33.619  50.189   5.965  0.00  0.00     0.034 A 
ATOM      2  C   UNL d   1      34.008  51.336   5.617  0.00  0.00     0.110 A 
ATOM      3  N   UNL d   1      33.173  52.300   5.322  0.00  0.00    -0.345 N 
ATOM      4  HN  UNL d   1      33.589  53.191   5.053  1.00  0.00     0.167 HD
ATOM      5  C   UNL d   1      31.985  52.254   5.335  0.00  0.00     0.150 A 
ATOM      6  S   UNL d   1      31.740  50.441   5.885  0.00  0.00    -0.052 SA
ENDROOT
BRANCH   1   7
ATOM      7  C   UNL d   1      34.137  48.874   6.366  0.00  0.00    -0.018 A 
ATOM      8  C   UNL d   1      34.838  48.861   7.578  0.00  0.00     0.015 A 
ATOM      9  C   UNL d   1      35.357  47.663   8.026  0.00  0.00     0.030 A 
ATOM     10  C   UNL d   1      35.187  46.504   7.292  0.00  0.00     0.036 A 
ATOM     11  C   UNL d   1      34.493  46.537   6.100  0.00  0.00     0.030 A 
ATOM     12  C   UNL d   1      33.953  47.735   5.615  0.00  0.00     0.015 A 
BRANCH  10  13
ATOM     13  N   UNL d   1      35.757  45.319   7.835  0.00  0.00    -0.309 N 
ATOM     14  C   UNL d   1      35.020  44.387   8.597  0.00  0.00     0.326 C 
ATOM     15  N   UNL d   1      35.639  43.177   8.961  0.00  0.00    -0.293 N 
ATOM     16  O   UNL d   1      33.833  44.586   8.967  0.00  0.00    -0.247 OA
ATOM     17  HN  UNL d   1      36.618  43.056   8.699  1.00  0.00     0.172 HD
ATOM     18  HN  UNL d   1      36.745  45.134   7.665  1.00  0.00     0.170 HD
BRANCH  15  19
ATOM     19  C   UNL d   1      35.017  42.110   9.663  0.00  0.00     0.132 A 
ATOM     20  C   UNL d   1      35.545  40.844   9.721  0.00  0.00     0.085 A 
ATOM     21  C   UNL d   1      34.672  40.097  10.483  0.00  0.00     0.079 A 
ATOM     22  O   UNL d   1      33.714  40.896  10.830  0.00  0.00    -0.241 OA
ATOM     23  N   UNL d   1      33.873  42.092  10.372  0.00  0.00    -0.245 N 
ATOM     24  HN  UNL d   1      33.244  42.882  10.520  1.00  0.00     0.196 HD
BRANCH  21  25
ATOM     25  C   UNL d   1      34.869  38.665  10.792  0.00  0.00     0.063 C 
ATOM     26  C   UNL d   1      33.763  37.871  10.111  0.00  0.00     0.012 C 
ENDBRANCH  21  25
ENDBRANCH  15  19
ENDBRANCH  10  13
ENDBRANCH   1   7
BRANCH   5  27
ATOM     27  N   UNL d   1      30.825  53.040   5.092  0.00  0.00    -0.323 N 
ATOM     28  HN  UNL d   1      30.707  53.438   4.160  1.00  0.00     0.169 HD
BRANCH  27  29
ATOM     29  C   UNL d   1      29.821  53.311   6.056  0.00  0.00     0.111 A 
ATOM     30  N   UNL d   1      29.922  54.285   6.984  0.00  0.00    -0.332 N 
ATOM     31  C   UNL d   1      28.940  54.502   7.881  0.00  0.00     0.080 A 
ATOM     32  HN  UNL d   1      30.758  54.869   7.006  1.00  0.00     0.168 HD
ATOM     33  C   UNL d   1      29.051  55.586   8.914  0.00  0.00     0.089 C 
ATOM     34  N   UNL d   1      27.819  53.755   7.886  0.00  0.00    -0.332 N 
ATOM     35  C   UNL d   1      27.706  52.784   6.970  0.00  0.00     0.108 A 
ATOM     36  HN  UNL d   1      27.079  53.922   8.568  1.00  0.00     0.168 HD
ATOM     37  C   UNL d   1      28.696  52.541   6.041  0.00  0.00     0.097 A 
BRANCH  35  38
ATOM     38  N   UNL d   1      26.513  51.974   6.968  0.00  0.00    -0.364 N 
ATOM     39  C   UNL d   1      26.558  50.609   7.416  0.00  0.00     0.154 C 
ATOM     40  C   UNL d   1      25.794  49.740   6.449  0.00  0.00     0.292 C 
ATOM     41  N   UNL d   1      24.511  50.260   6.077  0.00  0.00     0.091 N 
ATOM     42  C   UNL d   1      24.184  51.533   6.664  0.00  0.00     0.292 C 
ATOM     43  C   UNL d   1      25.260  52.562   6.501  0.00  0.00     0.154 C 
BRANCH  41  44
ATOM     44  C   UNL d   1      24.192  50.151   4.686  0.00  0.00     0.268 C 
ATOM     45  C   UNL d   1      25.412  50.231   3.795  0.00  0.00     0.037 C 
ENDBRANCH  41  44
ENDBRANCH  35  38
ENDBRANCH  27  29
ENDBRANCH   5  27
TORSDOF 8
ENDMDL
