MODEL 1
REMARK VINA RESULT:      -9.0      0.000      0.000
REMARK  3 active torsions:
REMARK  status: ('A' for Active; 'I' for Inactive)
REMARK    1  A    between atoms: C_2  and  C_3 
REMARK    2  A    between atoms: C_7  and  N_8 
REMARK       I    between atoms: N_8  and  C_10 
REMARK       I    between atoms: C_10  and  N_12 
REMARK    3  A    between atoms: N_12  and  C_14 
ROOT
ATOM      1  C   UNL d   1      27.780  48.793   7.615  0.00  0.00     0.036 A 
ATOM      2  C   UNL d   1      27.519  47.723   8.415  0.00  0.00     0.037 A 
ATOM      3  C   UNL d   1      28.413  46.654   8.599  0.00  0.00    -0.044 A 
ATOM      4  C   UNL d   1      29.619  46.693   7.933  0.00  0.00    -0.017 A 
ATOM      5  C   UNL d   1      29.842  47.783   7.141  0.00  0.00     0.015 A 
ATOM      6  C   UNL d   1      28.986  48.827   6.952  0.00  0.00     0.030 A 
ATOM      7  C   UNL d   1      30.614  45.589   8.086  0.00  0.00     0.004 A 
ATOM      8  C   UNL d   1      30.163  44.597   8.939  0.00  0.00    -0.003 A 
ATOM      9  C   UNL d   1      28.875  44.519   9.672  0.00  0.00     0.051 A 
ATOM     10  C   UNL d   1      27.954  45.602   9.493  0.00  0.00     0.044 A 
ATOM     11  S   UNL d   1      31.528  43.372   8.968  0.00  0.00    -0.075 SA
ATOM     12  C   UNL d   1      32.556  44.301   7.847  0.00  0.00     0.089 A 
ATOM     13  C   UNL d   1      31.823  45.437   7.536  0.00  0.00     0.051 A 
ATOM     14  C   UNL d   1      32.552  46.262   6.638  0.00  0.00     0.131 A 
ATOM     15  N   UNL d   1      32.098  47.472   6.133  0.00  0.00    -0.082 NA
ATOM     16  N   UNL d   1      33.788  45.869   6.224  0.00  0.00    -0.340 N 
ATOM     17  HN  UNL d   1      34.283  46.485   5.579  1.00  0.00     0.167 HD
ATOM     18  C   UNL d   1      34.404  44.747   6.588  0.00  0.00     0.182 A 
ATOM     19  N   UNL d   1      33.722  43.941   7.449  0.00  0.00    -0.346 N 
ATOM     20  HN  UNL d   1      34.131  43.064   7.773  1.00  0.00     0.167 HD
ENDROOT
BRANCH   1  21
ATOM     21  N   UNL d   1      26.831  49.841   7.473  0.00  0.00    -0.309 N 
ATOM     22  C   UNL d   1      25.492  49.505   7.117  0.00  0.00     0.325 C 
ATOM     23  N   UNL d   1      24.572  50.604   7.028  0.00  0.00    -0.309 N 
ATOM     24  O   UNL d   1      25.140  48.316   6.895  0.00  0.00    -0.247 OA
ATOM     25  HN  UNL d   1      24.878  51.546   7.275  1.00  0.00     0.170 HD
ATOM     26  HN  UNL d   1      27.102  50.813   7.622  1.00  0.00     0.170 HD
BRANCH  23  27
ATOM     27  C   UNL d   1      23.234  50.383   6.598  0.00  0.00     0.036 A 
ATOM     28  C   UNL d   1      22.989  50.429   5.244  0.00  0.00     0.029 A 
ATOM     29  C   UNL d   1      21.694  50.215   4.822  0.00  0.00     0.003 A 
ATOM     30  C   UNL d   1      20.683  49.962   5.727  0.00  0.00     0.007 A 
ATOM     31  C   UNL d   1      20.975  49.924   7.075  0.00  0.00    -0.056 A 
ATOM     32  C   UNL d   1      22.253  50.133   7.540  0.00  0.00     0.036 A 
BRANCH  31  33
ATOM     33  C   UNL d   1      19.824  49.646   8.000  0.00  0.00     0.034 C 
ATOM     34  C   UNL d   1      19.921  48.247   8.563  0.00  0.00     0.010 C 
ENDBRANCH  31  33
ENDBRANCH  23  27
ENDBRANCH   1  21
TORSDOF 3
ENDMDL
MODEL 2
REMARK VINA RESULT:      -8.8      3.232     10.086
REMARK  3 active torsions:
REMARK  status: ('A' for Active; 'I' for Inactive)
REMARK    1  A    between atoms: C_2  and  C_3 
REMARK    2  A    between atoms: C_7  and  N_8 
REMARK       I    between atoms: N_8  and  C_10 
REMARK       I    between atoms: C_10  and  N_12 
REMARK    3  A    between atoms: N_12  and  C_14 
ROOT
ATOM      1  C   UNL d   1      27.638  47.805   8.172  0.00  0.00     0.036 A 
ATOM      2  C   UNL d   1      28.125  48.766   7.341  0.00  0.00     0.037 A 
ATOM      3  C   UNL d   1      27.315  49.552   6.502  0.00  0.00    -0.044 A 
ATOM      4  C   UNL d   1      25.954  49.337   6.525  0.00  0.00    -0.017 A 
ATOM      5  C   UNL d   1      25.505  48.364   7.372  0.00  0.00     0.015 A 
ATOM      6  C   UNL d   1      26.277  47.593   8.191  0.00  0.00     0.030 A 
ATOM      7  C   UNL d   1      25.038  50.139   5.659  0.00  0.00     0.004 A 
ATOM      8  C   UNL d   1      25.725  51.062   4.890  0.00  0.00    -0.003 A 
ATOM      9  C   UNL d   1      27.184  51.323   4.838  0.00  0.00     0.051 A 
ATOM     10  C   UNL d   1      28.021  50.529   5.687  0.00  0.00     0.044 A 
ATOM     11  S   UNL d   1      24.414  51.911   3.928  0.00  0.00    -0.075 SA
ATOM     12  C   UNL d   1      23.091  50.955   4.644  0.00  0.00     0.089 A 
ATOM     13  C   UNL d   1      23.708  50.087   5.533  0.00  0.00     0.051 A 
ATOM     14  C   UNL d   1      22.739  49.267   6.171  0.00  0.00     0.131 A 
ATOM     15  N   UNL d   1      23.030  48.292   7.116  0.00  0.00    -0.082 NA
ATOM     16  N   UNL d   1      21.423  49.420   5.856  0.00  0.00    -0.340 N 
ATOM     17  HN  UNL d   1      20.755  48.814   6.333  1.00  0.00     0.167 HD
ATOM     18  C   UNL d   1      20.935  50.293   4.979  0.00  0.00     0.182 A 
ATOM     19  N   UNL d   1      21.848  51.090   4.356  0.00  0.00    -0.346 N 
ATOM     20  HN  UNL d   1      21.547  51.784   3.671  1.00  0.00     0.167 HD
ENDROOT
BRANCH   1  21
ATOM     21  N   UNL d   1      28.513  47.046   8.994  0.00  0.00    -0.309 N 
ATOM     22  C   UNL d   1      29.384  46.102   8.374  0.00  0.00     0.325 C 
ATOM     23  N   UNL d   1      30.271  45.395   9.254  0.00  0.00    -0.309 N 
ATOM     24  O   UNL d   1      29.374  45.904   7.130  0.00  0.00    -0.247 OA
ATOM     25  HN  UNL d   1      30.294  45.626  10.248  1.00  0.00     0.170 HD
ATOM     26  HN  UNL d   1      28.517  47.171  10.006  1.00  0.00     0.170 HD
BRANCH  23  27
ATOM     27  C   UNL d   1      31.119  44.373   8.743  0.00  0.00     0.036 A 
ATOM     28  C   UNL d   1      30.600  43.100   8.665  0.00  0.00     0.029 A 
ATOM     29  C   UNL d   1      31.418  42.106   8.171  0.00  0.00     0.003 A 
ATOM     30  C   UNL d   1      32.709  42.382   7.768  0.00  0.00     0.007 A 
ATOM     31  C   UNL d   1      33.187  43.672   7.864  0.00  0.00    -0.056 A 
ATOM     32  C   UNL d   1      32.406  44.695   8.352  0.00  0.00     0.036 A 
BRANCH  31  33
ATOM     33  C   UNL d   1      34.602  43.897   7.409  0.00  0.00     0.034 C 
ATOM     34  C   UNL d   1      35.566  43.102   8.258  0.00  0.00     0.010 C 
ENDBRANCH  31  33
ENDBRANCH  23  27
ENDBRANCH   1  21
TORSDOF 3
ENDMDL
MODEL 3
REMARK VINA RESULT:      -8.7      3.450      9.632
REMARK  3 active torsions:
REMARK  status: ('A' for Active; 'I' for Inactive)
REMARK    1  A    between atoms: C_2  and  C_3 
REMARK    2  A    between atoms: C_7  and  N_8 
REMARK       I    between atoms: N_8  and  C_10 
REMARK       I    between atoms: C_10  and  N_12 
REMARK    3  A    between atoms: N_12  and  C_14 
ROOT
ATOM      1  C   UNL d   1      27.381  48.271   7.880  0.00  0.00     0.036 A 
ATOM      2  C   UNL d   1      26.046  48.019   7.812  0.00  0.00     0.037 A 
ATOM      3  C   UNL d   1      25.170  48.698   6.947  0.00  0.00    -0.044 A 
ATOM      4  C   UNL d   1      25.693  49.670   6.122  0.00  0.00    -0.017 A 
ATOM      5  C   UNL d   1      27.038  49.892   6.220  0.00  0.00     0.015 A 
ATOM      6  C   UNL d   1      27.900  49.243   7.054  0.00  0.00     0.030 A 
ATOM      7  C   UNL d   1      24.816  50.427   5.179  0.00  0.00     0.004 A 
ATOM      8  C   UNL d   1      23.495  50.025   5.261  0.00  0.00    -0.003 A 
ATOM      9  C   UNL d   1      22.894  48.985   6.133  0.00  0.00     0.051 A 
ATOM     10  C   UNL d   1      23.776  48.287   7.020  0.00  0.00     0.044 A 
ATOM     11  S   UNL d   1      22.627  51.076   4.034  0.00  0.00    -0.075 SA
ATOM     12  C   UNL d   1      24.105  51.940   3.538  0.00  0.00     0.089 A 
ATOM     13  C   UNL d   1      25.122  51.394   4.308  0.00  0.00     0.051 A 
ATOM     14  C   UNL d   1      26.362  52.013   3.995  0.00  0.00     0.131 A 
ATOM     15  N   UNL d   1      27.575  51.695   4.589  0.00  0.00    -0.082 NA
ATOM     16  N   UNL d   1      26.399  52.993   3.050  0.00  0.00    -0.340 N 
ATOM     17  HN  UNL d   1      27.305  53.415   2.850  1.00  0.00     0.167 HD
ATOM     18  C   UNL d   1      25.352  53.445   2.364  0.00  0.00     0.182 A 
ATOM     19  N   UNL d   1      24.152  52.864   2.649  0.00  0.00    -0.346 N 
ATOM     20  HN  UNL d   1      23.306  53.159   2.163  1.00  0.00     0.167 HD
ENDROOT
BRANCH   1  21
ATOM     21  N   UNL d   1      28.212  47.548   8.778  0.00  0.00    -0.309 N 
ATOM     22  C   UNL d   1      29.097  46.565   8.245  0.00  0.00     0.325 C 
ATOM     23  N   UNL d   1      29.938  45.897   9.198  0.00  0.00    -0.309 N 
ATOM     24  O   UNL d   1      29.138  46.302   7.014  0.00  0.00    -0.247 OA
ATOM     25  HN  UNL d   1      29.921  46.179  10.179  1.00  0.00     0.170 HD
ATOM     26  HN  UNL d   1      28.174  47.727   9.781  1.00  0.00     0.170 HD
BRANCH  23  27
ATOM     27  C   UNL d   1      30.795  44.841   8.778  0.00  0.00     0.036 A 
ATOM     28  C   UNL d   1      30.301  43.559   8.848  0.00  0.00     0.029 A 
ATOM     29  C   UNL d   1      31.127  42.532   8.442  0.00  0.00     0.003 A 
ATOM     30  C   UNL d   1      32.403  42.787   7.982  0.00  0.00     0.007 A 
ATOM     31  C   UNL d   1      32.857  44.088   7.928  0.00  0.00    -0.056 A 
ATOM     32  C   UNL d   1      32.066  45.142   8.324  0.00  0.00     0.036 A 
BRANCH  31  33
ATOM     33  C   UNL d   1      34.257  44.288   7.418  0.00  0.00     0.034 C 
ATOM     34  C   UNL d   1      35.197  43.280   8.036  0.00  0.00     0.010 C 
ENDBRANCH  31  33
ENDBRANCH  23  27
ENDBRANCH   1  21
TORSDOF 3
ENDMDL
MODEL 4
REMARK VINA RESULT:      -8.7      2.892      4.350
REMARK  3 active torsions:
REMARK  status: ('A' for Active; 'I' for Inactive)
REMARK    1  A    between atoms: C_2  and  C_3 
REMARK    2  A    between atoms: C_7  and  N_8 
REMARK       I    between atoms: N_8  and  C_10 
REMARK       I    between atoms: C_10  and  N_12 
REMARK    3  A    between atoms: N_12  and  C_14 
ROOT
ATOM      1  C   UNL d   1      29.224  46.473   8.450  0.00  0.00     0.036 A 
ATOM      2  C   UNL d   1      30.095  46.806   7.459  0.00  0.00     0.037 A 
ATOM      3  C   UNL d   1      31.347  46.191   7.286  0.00  0.00    -0.044 A 
ATOM      4  C   UNL d   1      31.711  45.196   8.168  0.00  0.00    -0.017 A 
ATOM      5  C   UNL d   1      30.808  44.892   9.148  0.00  0.00     0.015 A 
ATOM      6  C   UNL d   1      29.591  45.479   9.329  0.00  0.00     0.030 A 
ATOM      7  C   UNL d   1      33.027  44.503   8.039  0.00  0.00     0.004 A 
ATOM      8  C   UNL d   1      33.766  44.983   6.972  0.00  0.00    -0.003 A 
ATOM      9  C   UNL d   1      33.410  46.049   6.002  0.00  0.00     0.051 A 
ATOM     10  C   UNL d   1      32.137  46.684   6.168  0.00  0.00     0.044 A 
ATOM     11  S   UNL d   1      35.313  43.999   7.015  0.00  0.00    -0.075 SA
ATOM     12  C   UNL d   1      34.822  43.052   8.443  0.00  0.00     0.089 A 
ATOM     13  C   UNL d   1      33.562  43.527   8.780  0.00  0.00     0.051 A 
ATOM     14  C   UNL d   1      33.065  42.837   9.918  0.00  0.00     0.131 A 
ATOM     15  N   UNL d   1      31.832  43.075  10.508  0.00  0.00    -0.082 NA
ATOM     16  N   UNL d   1      33.826  41.866  10.495  0.00  0.00    -0.340 N 
ATOM     17  HN  UNL d   1      33.438  41.391  11.310  1.00  0.00     0.167 HD
ATOM     18  C   UNL d   1      35.034  41.485  10.086  0.00  0.00     0.182 A 
ATOM     19  N   UNL d   1      35.530  42.135   8.995  0.00  0.00    -0.346 N 
ATOM     20  HN  UNL d   1      36.449  41.896   8.624  1.00  0.00     0.167 HD
ENDROOT
BRANCH   1  21
ATOM     21  N   UNL d   1      27.972  47.134   8.568  0.00  0.00    -0.309 N 
ATOM     22  C   UNL d   1      27.674  48.196   7.663  0.00  0.00     0.325 C 
ATOM     23  N   UNL d   1      26.378  48.797   7.808  0.00  0.00    -0.309 N 
ATOM     24  O   UNL d   1      28.497  48.579   6.791  0.00  0.00    -0.247 OA
ATOM     25  HN  UNL d   1      25.714  48.420   8.485  1.00  0.00     0.170 HD
ATOM     26  HN  UNL d   1      27.301  46.857   9.285  1.00  0.00     0.170 HD
BRANCH  23  27
ATOM     27  C   UNL d   1      26.018  49.919   7.010  0.00  0.00     0.036 A 
ATOM     28  C   UNL d   1      26.385  51.165   7.466  0.00  0.00     0.029 A 
ATOM     29  C   UNL d   1      26.039  52.255   6.696  0.00  0.00     0.003 A 
ATOM     30  C   UNL d   1      25.350  52.098   5.510  0.00  0.00     0.007 A 
ATOM     31  C   UNL d   1      25.003  50.831   5.091  0.00  0.00    -0.056 A 
ATOM     32  C   UNL d   1      25.328  49.715   5.829  0.00  0.00     0.036 A 
BRANCH  31  33
ATOM     33  C   UNL d   1      24.254  50.737   3.792  0.00  0.00     0.034 C 
ATOM     34  C   UNL d   1      25.176  50.309   2.674  0.00  0.00     0.010 C 
ENDBRANCH  31  33
ENDBRANCH  23  27
ENDBRANCH   1  21
TORSDOF 3
ENDMDL
MODEL 5
REMARK VINA RESULT:      -8.7      1.982      2.818
REMARK  3 active torsions:
REMARK  status: ('A' for Active; 'I' for Inactive)
REMARK    1  A    between atoms: C_2  and  C_3 
REMARK    2  A    between atoms: C_7  and  N_8 
REMARK       I    between atoms: N_8  and  C_10 
REMARK       I    between atoms: C_10  and  N_12 
REMARK    3  A    between atoms: N_12  and  C_14 
ROOT
ATOM      1  C   UNL d   1      29.162  47.391   8.642  0.00  0.00     0.036 A 
ATOM      2  C   UNL d   1      29.079  46.051   8.861  0.00  0.00     0.037 A 
ATOM      3  C   UNL d   1      30.142  45.159   8.632  0.00  0.00    -0.044 A 
ATOM      4  C   UNL d   1      31.332  45.672   8.161  0.00  0.00    -0.017 A 
ATOM      5  C   UNL d   1      31.373  47.022   7.955  0.00  0.00     0.015 A 
ATOM      6  C   UNL d   1      30.352  47.899   8.172  0.00  0.00     0.030 A 
ATOM      7  C   UNL d   1      32.500  44.779   7.899  0.00  0.00     0.004 A 
ATOM      8  C   UNL d   1      32.216  43.455   8.182  0.00  0.00    -0.003 A 
ATOM      9  C   UNL d   1      30.952  42.865   8.689  0.00  0.00     0.051 A 
ATOM     10  C   UNL d   1      29.861  43.762   8.926  0.00  0.00     0.044 A 
ATOM     11  S   UNL d   1      33.772  42.566   7.789  0.00  0.00    -0.075 SA
ATOM     12  C   UNL d   1      34.638  44.042   7.289  0.00  0.00     0.089 A 
ATOM     13  C   UNL d   1      33.723  45.073   7.448  0.00  0.00     0.051 A 
ATOM     14  C   UNL d   1      34.311  46.312   7.075  0.00  0.00     0.131 A 
ATOM     15  N   UNL d   1      33.661  47.537   7.118  0.00  0.00    -0.082 NA
ATOM     16  N   UNL d   1      35.601  46.335   6.641  0.00  0.00    -0.340 N 
ATOM     17  HN  UNL d   1      35.990  47.242   6.381  1.00  0.00     0.167 HD
ATOM     18  C   UNL d   1      36.397  45.275   6.525  0.00  0.00     0.182 A 
ATOM     19  N   UNL d   1      35.853  44.076   6.878  0.00  0.00    -0.346 N 
ATOM     20  HN  UNL d   1      36.404  43.220   6.816  1.00  0.00     0.167 HD
ENDROOT
BRANCH   1  21
ATOM     21  N   UNL d   1      28.048  48.237   8.895  0.00  0.00    -0.309 N 
ATOM     22  C   UNL d   1      27.412  48.875   7.789  0.00  0.00     0.325 C 
ATOM     23  N   UNL d   1      26.270  49.685   8.105  0.00  0.00    -0.309 N 
ATOM     24  O   UNL d   1      27.829  48.734   6.609  0.00  0.00    -0.247 OA
ATOM     25  HN  UNL d   1      25.924  49.726   9.064  1.00  0.00     0.170 HD
ATOM     26  HN  UNL d   1      27.711  48.386   9.846  1.00  0.00     0.170 HD
BRANCH  23  27
ATOM     27  C   UNL d   1      25.617  50.430   7.082  0.00  0.00     0.036 A 
ATOM     28  C   UNL d   1      25.985  51.747   6.927  0.00  0.00     0.029 A 
ATOM     29  C   UNL d   1      25.356  52.474   5.938  0.00  0.00     0.003 A 
ATOM     30  C   UNL d   1      24.394  51.896   5.134  0.00  0.00     0.007 A 
ATOM     31  C   UNL d   1      24.058  50.572   5.325  0.00  0.00    -0.056 A 
ATOM     32  C   UNL d   1      24.660  49.811   6.301  0.00  0.00     0.036 A 
BRANCH  31  33
ATOM     33  C   UNL d   1      23.002  50.012   4.414  0.00  0.00     0.034 C 
ATOM     34  C   UNL d   1      21.734  50.829   4.504  0.00  0.00     0.010 C 
ENDBRANCH  31  33
ENDBRANCH  23  27
ENDBRANCH   1  21
TORSDOF 3
ENDMDL
MODEL 6
REMARK VINA RESULT:      -8.6      2.033      2.586
REMARK  3 active torsions:
REMARK  status: ('A' for Active; 'I' for Inactive)
REMARK    1  A    between atoms: C_2  and  C_3 
REMARK    2  A    between atoms: C_7  and  N_8 
REMARK       I    between atoms: N_8  and  C_10 
REMARK       I    between atoms: C_10  and  N_12 
REMARK    3  A    between atoms: N_12  and  C_14 
ROOT
ATOM      1  C   UNL d   1      29.863  48.274   6.737  0.00  0.00     0.036 A 
ATOM      2  C   UNL d   1      29.451  47.079   7.241  0.00  0.00     0.037 A 
ATOM      3  C   UNL d   1      30.301  46.185   7.915  0.00  0.00    -0.044 A 
ATOM      4  C   UNL d   1      31.623  46.540   8.074  0.00  0.00    -0.017 A 
ATOM      5  C   UNL d   1      31.996  47.747   7.554  0.00  0.00     0.015 A 
ATOM      6  C   UNL d   1      31.185  48.625   6.898  0.00  0.00     0.030 A 
ATOM      7  C   UNL d   1      32.578  45.635   8.782  0.00  0.00     0.004 A 
ATOM      8  C   UNL d   1      31.967  44.473   9.218  0.00  0.00    -0.003 A 
ATOM      9  C   UNL d   1      30.551  44.056   9.067  0.00  0.00     0.051 A 
ATOM     10  C   UNL d   1      29.674  44.958   8.381  0.00  0.00     0.044 A 
ATOM     11  S   UNL d   1      33.314  43.538  10.041  0.00  0.00    -0.075 SA
ATOM     12  C   UNL d   1      34.548  44.784   9.722  0.00  0.00     0.089 A 
ATOM     13  C   UNL d   1      33.881  45.791   9.038  0.00  0.00     0.051 A 
ATOM     14  C   UNL d   1      34.776  46.850   8.728  0.00  0.00     0.131 A 
ATOM     15  N   UNL d   1      34.423  48.006   8.047  0.00  0.00    -0.082 NA
ATOM     16  N   UNL d   1      36.080  46.756   9.111  0.00  0.00    -0.340 N 
ATOM     17  HN  UNL d   1      36.694  47.535   8.871  1.00  0.00     0.167 HD
ATOM     18  C   UNL d   1      36.620  45.735   9.770  0.00  0.00     0.182 A 
ATOM     19  N   UNL d   1      35.778  44.707  10.078  0.00  0.00    -0.346 N 
ATOM     20  HN  UNL d   1      36.121  43.891  10.584  1.00  0.00     0.167 HD
ENDROOT
BRANCH   1  21
ATOM     21  N   UNL d   1      28.950  49.132   6.066  0.00  0.00    -0.309 N 
ATOM     22  C   UNL d   1      27.626  49.254   6.580  0.00  0.00     0.325 C 
ATOM     23  N   UNL d   1      26.764  50.165   5.881  0.00  0.00    -0.309 N 
ATOM     24  O   UNL d   1      27.238  48.602   7.585  0.00  0.00    -0.247 OA
ATOM     25  HN  UNL d   1      27.130  50.723   5.108  1.00  0.00     0.170 HD
ATOM     26  HN  UNL d   1      29.236  49.648   5.234  1.00  0.00     0.170 HD
BRANCH  23  27
ATOM     27  C   UNL d   1      25.399  50.294   6.264  0.00  0.00     0.036 A 
ATOM     28  C   UNL d   1      24.903  51.569   6.418  0.00  0.00     0.029 A 
ATOM     29  C   UNL d   1      23.581  51.700   6.789  0.00  0.00     0.003 A 
ATOM     30  C   UNL d   1      22.788  50.590   6.996  0.00  0.00     0.007 A 
ATOM     31  C   UNL d   1      23.327  49.331   6.830  0.00  0.00    -0.056 A 
ATOM     32  C   UNL d   1      24.642  49.155   6.462  0.00  0.00     0.036 A 
BRANCH  31  33
ATOM     33  C   UNL d   1      22.405  48.171   7.075  0.00  0.00     0.034 C 
ATOM     34  C   UNL d   1      21.109  48.642   7.693  0.00  0.00     0.010 C 
ENDBRANCH  31  33
ENDBRANCH  23  27
ENDBRANCH   1  21
TORSDOF 3
ENDMDL
MODEL 7
REMARK VINA RESULT:      -8.6      3.117      9.903
REMARK  3 active torsions:
REMARK  status: ('A' for Active; 'I' for Inactive)
REMARK    1  A    between atoms: C_2  and  C_3 
REMARK    2  A    between atoms: C_7  and  N_8 
REMARK       I    between atoms: N_8  and  C_10 
REMARK       I    between atoms: C_10  and  N_12 
REMARK    3  A    between atoms: N_12  and  C_14 
ROOT
ATOM      1  C   UNL d   1      29.352  48.736   7.502  0.00  0.00     0.036 A 
ATOM      2  C   UNL d   1      29.239  49.551   6.418  0.00  0.00     0.037 A 
ATOM      3  C   UNL d   1      28.010  49.897   5.830  0.00  0.00    -0.044 A 
ATOM      4  C   UNL d   1      26.857  49.383   6.384  0.00  0.00    -0.017 A 
ATOM      5  C   UNL d   1      27.013  48.570   7.471  0.00  0.00     0.015 A 
ATOM      6  C   UNL d   1      28.197  48.225   8.051  0.00  0.00     0.030 A 
ATOM      7  C   UNL d   1      25.518  49.713   5.808  0.00  0.00     0.004 A 
ATOM      8  C   UNL d   1      25.616  50.552   4.713  0.00  0.00    -0.003 A 
ATOM      9  C   UNL d   1      26.835  51.126   4.089  0.00  0.00     0.051 A 
ATOM     10  C   UNL d   1      28.094  50.780   4.678  0.00  0.00     0.044 A 
ATOM     11  S   UNL d   1      23.878  50.811   4.186  0.00  0.00    -0.075 SA
ATOM     12  C   UNL d   1      23.201  49.779   5.472  0.00  0.00     0.089 A 
ATOM     13  C   UNL d   1      24.298  49.323   6.189  0.00  0.00     0.051 A 
ATOM     14  C   UNL d   1      23.874  48.481   7.252  0.00  0.00     0.131 A 
ATOM     15  N   UNL d   1      24.726  47.863   8.157  0.00  0.00    -0.082 NA
ATOM     16  N   UNL d   1      22.545  48.242   7.425  0.00  0.00    -0.340 N 
ATOM     17  HN  UNL d   1      22.277  47.633   8.198  1.00  0.00     0.167 HD
ATOM     18  C   UNL d   1      21.566  48.735   6.671  0.00  0.00     0.182 A 
ATOM     19  N   UNL d   1      21.951  49.546   5.645  0.00  0.00    -0.346 N 
ATOM     20  HN  UNL d   1      21.256  49.962   5.025  1.00  0.00     0.167 HD
ENDROOT
BRANCH   1  21
ATOM     21  N   UNL d   1      30.627  48.426   8.047  0.00  0.00    -0.309 N 
ATOM     22  C   UNL d   1      31.320  47.283   7.551  0.00  0.00     0.325 C 
ATOM     23  N   UNL d   1      32.620  47.046   8.114  0.00  0.00    -0.309 N 
ATOM     24  O   UNL d   1      30.822  46.530   6.674  0.00  0.00    -0.247 OA
ATOM     25  HN  UNL d   1      33.017  47.711   8.778  1.00  0.00     0.170 HD
ATOM     26  HN  UNL d   1      31.037  49.008   8.778  1.00  0.00     0.170 HD
BRANCH  23  27
ATOM     27  C   UNL d   1      33.356  45.884   7.747  0.00  0.00     0.036 A 
ATOM     28  C   UNL d   1      34.475  46.065   6.966  0.00  0.00     0.029 A 
ATOM     29  C   UNL d   1      35.192  44.943   6.607  0.00  0.00     0.003 A 
ATOM     30  C   UNL d   1      34.800  43.686   7.021  0.00  0.00     0.007 A 
ATOM     31  C   UNL d   1      33.672  43.552   7.804  0.00  0.00    -0.056 A 
ATOM     32  C   UNL d   1      32.926  44.645   8.184  0.00  0.00     0.036 A 
BRANCH  31  33
ATOM     33  C   UNL d   1      33.305  42.154   8.215  0.00  0.00     0.034 C 
ATOM     34  C   UNL d   1      31.893  41.827   7.788  0.00  0.00     0.010 C 
ENDBRANCH  31  33
ENDBRANCH  23  27
ENDBRANCH   1  21
TORSDOF 3
ENDMDL
MODEL 8
REMARK VINA RESULT:      -8.5      3.177      4.059
REMARK  3 active torsions:
REMARK  status: ('A' for Active; 'I' for Inactive)
REMARK    1  A    between atoms: C_2  and  C_3 
REMARK    2  A    between atoms: C_7  and  N_8 
REMARK       I    between atoms: N_8  and  C_10 
REMARK       I    between atoms: C_10  and  N_12 
REMARK    3  A    between atoms: N_12  and  C_14 
ROOT
ATOM      1  C   UNL d   1      27.662  48.393   7.715  0.00  0.00     0.036 A 
ATOM      2  C   UNL d   1      27.516  47.320   8.539  0.00  0.00     0.037 A 
ATOM      3  C   UNL d   1      28.499  46.330   8.707  0.00  0.00    -0.044 A 
ATOM      4  C   UNL d   1      29.675  46.454   7.999  0.00  0.00    -0.017 A 
ATOM      5  C   UNL d   1      29.782  47.545   7.184  0.00  0.00     0.015 A 
ATOM      6  C   UNL d   1      28.838  48.514   7.010  0.00  0.00     0.030 A 
ATOM      7  C   UNL d   1      30.761  45.437   8.133  0.00  0.00     0.004 A 
ATOM      8  C   UNL d   1      30.420  44.427   9.015  0.00  0.00    -0.003 A 
ATOM      9  C   UNL d   1      29.168  44.258   9.794  0.00  0.00     0.051 A 
ATOM     10  C   UNL d   1      28.157  45.260   9.631  0.00  0.00     0.044 A 
ATOM     11  S   UNL d   1      31.880  43.316   9.014  0.00  0.00    -0.075 SA
ATOM     12  C   UNL d   1      32.792  44.306   7.845  0.00  0.00     0.089 A 
ATOM     13  C   UNL d   1      31.958  45.374   7.544  0.00  0.00     0.051 A 
ATOM     14  C   UNL d   1      32.588  46.239   6.609  0.00  0.00     0.131 A 
ATOM     15  N   UNL d   1      32.021  47.400   6.103  0.00  0.00    -0.082 NA
ATOM     16  N   UNL d   1      33.838  45.939   6.158  0.00  0.00    -0.340 N 
ATOM     17  HN  UNL d   1      34.259  46.582   5.488  1.00  0.00     0.167 HD
ATOM     18  C   UNL d   1      34.555  44.877   6.516  0.00  0.00     0.182 A 
ATOM     19  N   UNL d   1      33.969  44.033   7.412  0.00  0.00    -0.346 N 
ATOM     20  HN  UNL d   1      34.459  43.199   7.734  1.00  0.00     0.167 HD
ENDROOT
BRANCH   1  21
ATOM     21  N   UNL d   1      26.627  49.359   7.591  0.00  0.00    -0.309 N 
ATOM     22  C   UNL d   1      26.989  50.718   7.353  0.00  0.00     0.325 C 
ATOM     23  N   UNL d   1      25.898  51.639   7.198  0.00  0.00    -0.309 N 
ATOM     24  O   UNL d   1      28.191  51.085   7.281  0.00  0.00    -0.247 OA
ATOM     25  HN  UNL d   1      24.937  51.296   7.200  1.00  0.00     0.170 HD
ATOM     26  HN  UNL d   1      25.647  49.088   7.673  1.00  0.00     0.170 HD
BRANCH  23  27
ATOM     27  C   UNL d   1      26.154  53.030   7.040  0.00  0.00     0.036 A 
ATOM     28  C   UNL d   1      26.199  53.523   5.756  0.00  0.00     0.029 A 
ATOM     29  C   UNL d   1      26.447  54.871   5.598  0.00  0.00     0.003 A 
ATOM     30  C   UNL d   1      26.640  55.692   6.691  0.00  0.00     0.007 A 
ATOM     31  C   UNL d   1      26.585  55.154   7.960  0.00  0.00    -0.056 A 
ATOM     32  C   UNL d   1      26.342  53.815   8.163  0.00  0.00     0.036 A 
BRANCH  31  33
ATOM     33  C   UNL d   1      26.807  56.107   9.100  0.00  0.00     0.034 C 
ATOM     34  C   UNL d   1      28.281  56.378   9.289  0.00  0.00     0.010 C 
ENDBRANCH  31  33
ENDBRANCH  23  27
ENDBRANCH   1  21
TORSDOF 3
ENDMDL
MODEL 9
REMARK VINA RESULT:      -8.4      3.474      9.713
REMARK  3 active torsions:
REMARK  status: ('A' for Active; 'I' for Inactive)
REMARK    1  A    between atoms: C_2  and  C_3 
REMARK    2  A    between atoms: C_7  and  N_8 
REMARK       I    between atoms: N_8  and  C_10 
REMARK       I    between atoms: C_10  and  N_12 
REMARK    3  A    between atoms: N_12  and  C_14 
ROOT
ATOM      1  C   UNL d   1      29.043  48.834   7.384  0.00  0.00     0.036 A 
ATOM      2  C   UNL d   1      27.825  48.397   7.806  0.00  0.00     0.037 A 
ATOM      3  C   UNL d   1      26.613  48.761   7.192  0.00  0.00    -0.044 A 
ATOM      4  C   UNL d   1      26.663  49.604   6.103  0.00  0.00    -0.017 A 
ATOM      5  C   UNL d   1      27.905  50.019   5.711  0.00  0.00     0.015 A 
ATOM      6  C   UNL d   1      29.088  49.676   6.295  0.00  0.00     0.030 A 
ATOM      7  C   UNL d   1      25.412  50.027   5.405  0.00  0.00     0.004 A 
ATOM      8  C   UNL d   1      24.283  49.478   5.984  0.00  0.00    -0.003 A 
ATOM      9  C   UNL d   1      24.188  48.569   7.153  0.00  0.00     0.051 A 
ATOM     10  C   UNL d   1      25.415  48.191   7.789  0.00  0.00     0.044 A 
ATOM     11  S   UNL d   1      22.896  50.130   4.975  0.00  0.00    -0.075 SA
ATOM     12  C   UNL d   1      23.958  51.063   3.889  0.00  0.00     0.089 A 
ATOM     13  C   UNL d   1      25.246  50.827   4.347  0.00  0.00     0.051 A 
ATOM     14  C   UNL d   1      26.188  51.528   3.547  0.00  0.00     0.131 A 
ATOM     15  N   UNL d   1      27.561  51.504   3.741  0.00  0.00    -0.082 NA
ATOM     16  N   UNL d   1      25.746  52.289   2.507  0.00  0.00    -0.340 N 
ATOM     17  HN  UNL d   1      26.449  52.779   1.955  1.00  0.00     0.167 HD
ATOM     18  C   UNL d   1      24.473  52.447   2.152  0.00  0.00     0.182 A 
ATOM     19  N   UNL d   1      23.553  51.783   2.907  0.00  0.00    -0.346 N 
ATOM     20  HN  UNL d   1      22.558  51.856   2.693  1.00  0.00     0.167 HD
ENDROOT
BRANCH   1  21
ATOM     21  N   UNL d   1      30.230  48.427   8.050  0.00  0.00    -0.309 N 
ATOM     22  C   UNL d   1      30.963  47.323   7.523  0.00  0.00     0.325 C 
ATOM     23  N   UNL d   1      32.174  46.987   8.218  0.00  0.00    -0.309 N 
ATOM     24  O   UNL d   1      30.572  46.685   6.511  0.00  0.00    -0.247 OA
ATOM     25  HN  UNL d   1      32.492  47.564   8.997  1.00  0.00     0.170 HD
ATOM     26  HN  UNL d   1      30.551  48.914   8.887  1.00  0.00     0.170 HD
BRANCH  23  27
ATOM     27  C   UNL d   1      32.932  45.850   7.821  0.00  0.00     0.036 A 
ATOM     28  C   UNL d   1      34.034  46.070   7.026  0.00  0.00     0.029 A 
ATOM     29  C   UNL d   1      34.773  44.971   6.639  0.00  0.00     0.003 A 
ATOM     30  C   UNL d   1      34.417  43.699   7.038  0.00  0.00     0.007 A 
ATOM     31  C   UNL d   1      33.305  43.525   7.836  0.00  0.00    -0.056 A 
ATOM     32  C   UNL d   1      32.539  44.594   8.244  0.00  0.00     0.036 A 
BRANCH  31  33
ATOM     33  C   UNL d   1      32.979  42.112   8.229  0.00  0.00     0.034 C 
ATOM     34  C   UNL d   1      33.936  41.621   9.290  0.00  0.00     0.010 C 
ENDBRANCH  31  33
ENDBRANCH  23  27
ENDBRANCH   1  21
TORSDOF 3
ENDMDL
