REMARK  5 active torsions:
REMARK  status: ('A' for Active; 'I' for Inactive)
REMARK       I    between atoms: N_2  and  C_4 
REMARK    1  A    between atoms: C_4  and  C_6 
REMARK    2  A    between atoms: C_10  and  N_11 
REMARK       I    between atoms: N_11  and  C_13 
REMARK       I    between atoms: C_13  and  N_15 
REMARK    3  A    between atoms: N_15  and  C_17 
REMARK    4  A    between atoms: C_20  and  C_21 
REMARK    5  A    between atoms: C_26  and  N_27 
ROOT
ATOM      1  C   UNL d   1       0.083   1.220  -3.808  0.00  0.00     0.108 A 
ATOM      2  C   UNL d   1       0.585   2.347  -4.460  0.00  0.00     0.049 A 
ATOM      3  C   UNL d   1      -0.103   2.980  -5.476  0.00  0.00     0.017 A 
ATOM      4  C   UNL d   1      -1.336   2.426  -5.815  0.00  0.00    -0.010 A 
ATOM      5  C   UNL d   1      -1.814   1.296  -5.144  0.00  0.00     0.102 A 
ATOM      6  N   UNL d   1      -1.114   0.696  -4.150  0.00  0.00    -0.351 N 
ATOM      7  HN  UNL d   1      -1.482  -0.127  -3.673  1.00  0.00     0.166 HD
ENDROOT
BRANCH   1   8
ATOM      8  N   UNL d   1       0.897   0.669  -2.779  0.00  0.00    -0.294 N 
ATOM      9  C   UNL d   1       2.147   1.217  -2.458  0.00  0.00     0.326 C 
ATOM     10  N   UNL d   1       2.911   0.567  -1.433  0.00  0.00    -0.309 N 
ATOM     11  O   UNL d   1       2.557   2.240  -3.063  0.00  0.00    -0.247 OA
ATOM     12  HN  UNL d   1       2.551  -0.267  -0.970  1.00  0.00     0.170 HD
ATOM     13  HN  UNL d   1       0.563  -0.144  -2.263  1.00  0.00     0.172 HD
BRANCH  10  14
ATOM     14  C   UNL d   1       4.180   1.102  -1.072  0.00  0.00     0.037 A 
ATOM     15  C   UNL d   1       4.696   2.258  -1.621  0.00  0.00     0.029 A 
ATOM     16  C   UNL d   1       5.928   2.777  -1.270  0.00  0.00     0.003 A 
ATOM     17  C   UNL d   1       6.698   2.136  -0.334  0.00  0.00     0.017 A 
ATOM     18  C   UNL d   1       6.204   0.977   0.230  0.00  0.00     0.034 A 
ATOM     19  C   UNL d   1       4.977   0.464  -0.122  0.00  0.00     0.046 A 
BRANCH  18  20
ATOM     20  C   UNL d   1       7.038   0.309   1.224  0.00  0.00     0.251 C 
ATOM     21  N   UNL d   1       6.938  -1.088   1.489  0.00  0.00    -0.361 N 
ATOM     22  C   UNL d   1       7.921  -1.649   2.414  0.00  0.00     0.149 C 
ATOM     23  HN  UNL d   1       6.218  -1.666   1.055  1.00  0.00     0.162 HD
ATOM     24  O   UNL d   1       7.879   0.986   1.873  0.00  0.00    -0.268 OA
ENDBRANCH  18  20
ENDBRANCH  10  14
ENDBRANCH   1   8
BRANCH   4  25
ATOM     25  C   UNL d   1      -2.074   3.071  -6.875  0.00  0.00    -0.017 A 
ATOM     26  C   UNL d   1      -1.848   2.651  -8.174  0.00  0.00    -0.051 A 
ATOM     27  C   UNL d   1      -0.867   1.565  -8.441  0.00  0.00     0.049 C 
ATOM     28  C   UNL d   1      -2.533   3.239  -9.240  0.00  0.00     0.010 A 
ATOM     29  C   UNL d   1      -3.460   4.261  -9.019  0.00  0.00     0.030 A 
ATOM     30  C   UNL d   1      -3.683   4.678  -7.721  0.00  0.00     0.030 A 
ATOM     31  C   UNL d   1      -2.993   4.082  -6.679  0.00  0.00     0.042 A 
BRANCH  30  32
ATOM     32  N   UNL d   1      -4.609   5.714  -7.395  0.00  0.00    -0.390 N 
ATOM     33  C   UNL d   1      -5.227   6.542  -8.411  0.00  0.00     0.149 C 
ATOM     34  C   UNL d   1      -4.920   5.918  -5.990  0.00  0.00     0.149 C 
ENDBRANCH  30  32
ENDBRANCH   4  25
TORSDOF 5
