REMARK  8 active torsions:
REMARK  status: ('A' for Active; 'I' for Inactive)
REMARK    1  A    between atoms: C_2  and  C_3 
REMARK    2  A    between atoms: C_5  and  N_6 
REMARK       I    between atoms: N_6  and  C_8 
REMARK       I    between atoms: C_8  and  N_10 
REMARK    3  A    between atoms: N_10  and  C_12 
REMARK    4  A    between atoms: C_15  and  C_16 
REMARK    5  A    between atoms: C_20  and  N_21 
REMARK    6  A    between atoms: N_21  and  C_23 
REMARK    7  A    between atoms: C_30  and  N_31 
REMARK    8  A    between atoms: N_34  and  C_35 
ROOT
ATOM      1  C   UNL d   1       5.214   8.484   6.206  0.00  0.00     0.034 A 
ATOM      2  C   UNL d   1       4.389   9.274   6.740  0.00  0.00     0.110 A 
ATOM      3  N   UNL d   1       4.763  10.256   7.519  0.00  0.00    -0.345 N 
ATOM      4  HN  UNL d   1       4.018  10.839   7.901  1.00  0.00     0.167 HD
ATOM      5  C   UNL d   1       5.873  10.547   7.832  0.00  0.00     0.150 A 
ATOM      6  S   UNL d   1       6.837   9.197   6.883  0.00  0.00    -0.052 SA
ENDROOT
BRANCH   1   7
ATOM      7  C   UNL d   1       5.274   7.315   5.319  0.00  0.00    -0.018 A 
ATOM      8  C   UNL d   1       6.560   6.959   4.897  0.00  0.00     0.015 A 
ATOM      9  C   UNL d   1       6.702   5.870   4.061  0.00  0.00     0.030 A 
ATOM     10  C   UNL d   1       5.596   5.149   3.651  0.00  0.00     0.036 A 
ATOM     11  C   UNL d   1       4.337   5.515   4.077  0.00  0.00     0.030 A 
ATOM     12  C   UNL d   1       4.155   6.615   4.926  0.00  0.00     0.015 A 
BRANCH  10  13
ATOM     13  N   UNL d   1       5.843   4.043   2.791  0.00  0.00    -0.309 N 
ATOM     14  C   UNL d   1       7.140   3.609   2.445  0.00  0.00     0.326 C 
ATOM     15  N   UNL d   1       7.277   2.417   1.710  0.00  0.00    -0.293 N 
ATOM     16  O   UNL d   1       8.184   4.238   2.763  0.00  0.00    -0.247 OA
ATOM     17  HN  UNL d   1       6.419   1.949   1.414  1.00  0.00     0.172 HD
ATOM     18  HN  UNL d   1       5.044   3.539   2.407  1.00  0.00     0.170 HD
BRANCH  15  19
ATOM     19  C   UNL d   1       8.508   1.809   1.343  0.00  0.00     0.132 A 
ATOM     20  C   UNL d   1       9.716   2.454   1.430  0.00  0.00     0.085 A 
ATOM     21  C   UNL d   1      10.665   1.555   0.994  0.00  0.00     0.079 A 
ATOM     22  O   UNL d   1      10.027   0.473   0.682  0.00  0.00    -0.241 OA
ATOM     23  N   UNL d   1       8.754   0.573   0.871  0.00  0.00    -0.245 N 
ATOM     24  HN  UNL d   1       8.060  -0.153   0.694  1.00  0.00     0.196 HD
BRANCH  21  25
ATOM     25  C   UNL d   1      12.111   1.854   0.926  0.00  0.00     0.063 C 
ATOM     26  C   UNL d   1      12.803   1.143   2.081  0.00  0.00     0.012 C 
ENDBRANCH  21  25
ENDBRANCH  15  19
ENDBRANCH  10  13
ENDBRANCH   1   7
BRANCH   5  27
ATOM     27  N   UNL d   1       6.617  11.479   8.606  0.00  0.00    -0.323 N 
ATOM     28  HN  UNL d   1       7.630  11.495   8.487  1.00  0.00     0.169 HD
BRANCH  27  29
ATOM     29  C   UNL d   1       6.048  12.389   9.534  0.00  0.00     0.111 A 
ATOM     30  N   UNL d   1       6.639  13.544   9.903  0.00  0.00    -0.332 N 
ATOM     31  C   UNL d   1       6.058  14.375  10.791  0.00  0.00     0.080 A 
ATOM     32  HN  UNL d   1       7.543  13.793   9.502  1.00  0.00     0.168 HD
ATOM     33  C   UNL d   1       6.715  15.661  11.203  0.00  0.00     0.089 C 
ATOM     34  N   UNL d   1       4.865  14.085  11.344  0.00  0.00    -0.332 N 
ATOM     35  C   UNL d   1       4.267  12.941  10.986  0.00  0.00     0.108 A 
ATOM     36  HN  UNL d   1       4.430  14.717  12.016  1.00  0.00     0.168 HD
ATOM     37  C   UNL d   1       4.839  12.073  10.080  0.00  0.00     0.097 A 
BRANCH  35  38
ATOM     38  N   UNL d   1       2.991  12.617  11.574  0.00  0.00    -0.364 N 
ATOM     39  C   UNL d   1       2.354  11.361  11.287  0.00  0.00     0.154 C 
ATOM     40  C   UNL d   1       0.893  11.596  10.997  0.00  0.00     0.292 C 
ATOM     41  N   UNL d   1       0.237  12.457  11.936  0.00  0.00     0.091 N 
ATOM     42  C   UNL d   1       1.088  12.974  12.976  0.00  0.00     0.292 C 
ATOM     43  C   UNL d   1       2.355  13.586  12.464  0.00  0.00     0.154 C 
BRANCH  41  44
ATOM     44  C   UNL d   1      -0.645  13.426  11.359  0.00  0.00     0.268 C 
ATOM     45  C   UNL d   1       0.090  14.531  10.633  0.00  0.00     0.037 C 
ENDBRANCH  41  44
ENDBRANCH  35  38
ENDBRANCH  27  29
ENDBRANCH   5  27
TORSDOF 8
