REMARK  8 active torsions:
REMARK  status: ('A' for Active; 'I' for Inactive)
REMARK    1  A    between atoms: C_2  and  N_3 
REMARK       I    between atoms: N_3  and  C_5 
REMARK    2  A    between atoms: C_5  and  C_7 
REMARK    3  A    between atoms: C_7  and  C_8 
REMARK    4  A    between atoms: N_11  and  C_12 
REMARK    5  A    between atoms: C_15  and  N_16 
REMARK    6  A    between atoms: N_16  and  C_18 
REMARK    7  A    between atoms: C_21  and  N_22 
REMARK    8  A    between atoms: C_33  and  O_34 
ROOT
ATOM      1  C   UNL d   1      10.360  -5.111  -1.181  0.00  0.00     0.682 A 
ATOM      2  N   UNL d   1       9.806  -6.299  -1.010  0.00  0.00    -0.176 N 
ATOM      3  HN  UNL d   1       8.886  -6.389  -0.579  1.00  0.00     0.186 HD
ATOM      4  C   UNL d   1      10.498  -7.408  -1.425  0.00  0.00     0.134 A 
ATOM      5  C   UNL d   1      11.748  -7.221  -2.002  0.00  0.00     0.038 A 
ATOM      6  C   UNL d   1      12.500  -8.297  -2.420  0.00  0.00     0.054 A 
ATOM      7  C   UNL d   1      13.737  -8.130  -2.969  0.00  0.00     0.069 A 
ATOM      8  C   UNL d   1      14.324  -6.885  -3.149  0.00  0.00     0.039 A 
ATOM      9  C   UNL d   1      13.568  -5.779  -2.728  0.00  0.00     0.034 A 
ATOM     10  C   UNL d   1      12.313  -5.975  -2.172  0.00  0.00     0.063 A 
ATOM     11  N   UNL d   1      11.590  -4.923  -1.748  0.00  0.00    -0.191 N 
ATOM     12  HN  UNL d   1      11.961  -3.979  -1.850  1.00  0.00     0.184 HD
ENDROOT
BRANCH   4  13
ATOM     13  N   UNL d   1       9.883  -8.633  -1.213  0.00  0.00    -0.341 N 
ATOM     14  HN  UNL d   1       8.877  -8.598  -1.046  1.00  0.00     0.167 HD
BRANCH  13  15
ATOM     15  C   UNL d   1      10.447  -9.897  -1.197  0.00  0.00     0.033 A 
ATOM     16  C   UNL d   1       9.612 -10.998  -1.146  0.00  0.00     0.032 A 
ATOM     17  C   UNL d   1      10.156 -12.272  -1.181  0.00  0.00     0.031 A 
ATOM     18  C   UNL d   1      11.513 -12.510  -1.265  0.00  0.00     0.030 A 
ATOM     19  C   UNL d   1      12.328 -11.399  -1.315  0.00  0.00     0.031 A 
ATOM     20  C   UNL d   1      11.831 -10.123  -1.284  0.00  0.00     0.032 A 
BRANCH  18  21
ATOM     21  N   UNL d   1      12.058 -13.842  -1.286  0.00  0.00    -0.378 N 
ATOM     22  C   UNL d   1      13.416 -14.057  -1.786  0.00  0.00     0.153 C 
ATOM     23  C   UNL d   1      14.030 -15.198  -1.000  0.00  0.00     0.291 C 
ATOM     24  N   UNL d   1      13.389 -15.406   0.259  0.00  0.00     0.087 N 
ATOM     25  C   UNL d   1      13.697 -14.389   1.246  0.00  0.00     0.310 C 
ATOM     26  C   UNL d   1      12.007 -15.750   0.171  0.00  0.00     0.291 C 
ATOM     27  C   UNL d   1      11.220 -14.915  -0.803  0.00  0.00     0.153 C 
ENDBRANCH  18  21
ENDBRANCH  13  15
ENDBRANCH   4  13
BRANCH   1  28
ATOM     28  N   UNL d   1       9.707  -3.897  -0.766  0.00  0.00    -0.217 N 
ATOM     29  C   UNL d   1       8.479  -3.923   0.019  0.00  0.00     0.141 C 
ATOM     30  C   UNL d   1       8.901  -3.283   1.366  0.00  0.00     0.025 C 
ATOM     31  C   UNL d   1       9.616  -2.011   1.150  0.00  0.00    -0.003 C 
ATOM     32  C   UNL d   1       9.727  -1.564  -0.268  0.00  0.00     0.025 C 
ATOM     33  C   UNL d   1      10.319  -2.614  -1.172  0.00  0.00     0.141 C 
BRANCH  31  34
ATOM     34  C   UNL d   1       9.550  -0.970   2.185  0.00  0.00     0.107 C 
BRANCH  34  35
ATOM     35  C   UNL d   1      10.104   0.319   1.718  0.00  0.00     0.217 C 
ATOM     36  N   UNL d   1       9.654   0.987   0.539  0.00  0.00    -0.361 N 
ATOM     37  HN  UNL d   1       8.966   0.570  -0.087  1.00  0.00     0.162 HD
ATOM     38  O   UNL d   1      11.026   0.904   2.361  0.00  0.00    -0.274 OA
BRANCH  36  39
ATOM     39  C   UNL d   1      10.240   2.313   0.281  0.00  0.00     0.118 C 
ATOM     40  C   UNL d   1      10.003   2.597  -1.188  0.00  0.00     0.026 C 
ENDBRANCH  36  39
ENDBRANCH  34  35
ENDBRANCH  31  34
ENDBRANCH   1  28
BRANCH   7  41
ATOM     41  O   UNL d   1      14.496  -9.218  -3.388  0.00  0.00    -0.356 OA
ATOM     42  C   UNL d   1      15.791  -9.010  -3.945  0.00  0.00     0.210 C 
ENDBRANCH   7  41
TORSDOF 8
