REMARK  8 active torsions:
REMARK  status: ('A' for Active; 'I' for Inactive)
REMARK    1  A    between atoms: O_2  and  C_3 
REMARK    2  A    between atoms: C_3  and  C_5 
REMARK    3  A    between atoms: C_15  and  C_16 
REMARK    4  A    between atoms: C_16  and  C_37 
REMARK    5  A    between atoms: N_17  and  C_19 
REMARK    6  A    between atoms: C_22  and  N_23 
REMARK       I    between atoms: N_23  and  C_25 
REMARK    7  A    between atoms: C_25  and  C_27 
REMARK    8  A    between atoms: C_27  and  N_28 
ROOT
ATOM      1  C   UNL d   1       2.098  -1.156  -0.750  0.00  0.00     0.037 C 
ATOM      2  N   UNL d   1       1.265  -2.021  -1.216  0.00  0.00    -0.358 N 
ATOM      3  HN  UNL d   1       0.284  -1.746  -1.267  1.00  0.00     0.166 HD
ENDROOT
BRANCH   1   4
ATOM      4  C   UNL d   1       3.547  -1.493  -0.894  0.00  0.00     0.164 A 
ATOM      5  C   UNL d   1       3.921  -2.660  -0.044  0.00  0.00     0.236 A 
ATOM      6  N   UNL d   1       4.886  -2.222   0.919  0.00  0.00    -0.326 N 
ATOM      7  O   UNL d   1       3.482  -3.839  -0.134  0.00  0.00    -0.272 OA
ATOM      8  C   UNL d   1       5.150  -0.841   0.721  0.00  0.00     0.043 A 
ATOM      9  HN  UNL d   1       5.315  -2.809   1.634  1.00  0.00     0.169 HD
ATOM     10  C   UNL d   1       4.386  -0.376  -0.338  0.00  0.00    -0.012 A 
ATOM     11  C   UNL d   1       6.010  -0.015   1.419  0.00  0.00     0.047 A 
ATOM     12  C   UNL d   1       4.540   0.962  -0.648  0.00  0.00     0.012 A 
ATOM     13  C   UNL d   1       5.398   1.796   0.045  0.00  0.00     0.018 A 
ATOM     14  C   UNL d   1       6.153   1.319   1.097  0.00  0.00     0.041 A 
BRANCH  14  15
ATOM     15  C   UNL d   1       7.045   2.218   1.808  0.00  0.00     0.293 C 
ATOM     16  O   UNL d   1       7.246   3.366   1.363  0.00  0.00    -0.259 OA
BRANCH  15  17
ATOM     17  O   UNL d   1       7.638   1.725   2.975  0.00  0.00    -0.323 OA
ATOM     18  C   UNL d   1       8.513   2.584   3.708  0.00  0.00     0.213 C 
ENDBRANCH  15  17
ENDBRANCH  14  15
ENDBRANCH   1   4
BRANCH   1  19
ATOM     19  C   UNL d   1       1.703   0.088  -0.103  0.00  0.00    -0.012 A 
ATOM     20  C   UNL d   1       0.577   0.774  -0.517  0.00  0.00     0.013 A 
ATOM     21  C   UNL d   1       0.222   1.945   0.100  0.00  0.00     0.001 A 
ATOM     22  C   UNL d   1       0.968   2.450   1.126  0.00  0.00     0.000 A 
ATOM     23  C   UNL d   1       2.080   1.762   1.526  0.00  0.00     0.001 A 
ATOM     24  C   UNL d   1       2.468   0.583   0.930  0.00  0.00     0.013 A 
ENDBRANCH   1  19
BRANCH   2  25
ATOM     25  C   UNL d   1       1.598  -3.315  -1.659  0.00  0.00     0.032 A 
ATOM     26  C   UNL d   1       1.736  -4.384  -0.771  0.00  0.00     0.031 A 
ATOM     27  C   UNL d   1       2.054  -5.620  -1.264  0.00  0.00     0.032 A 
ATOM     28  C   UNL d   1       2.248  -5.854  -2.619  0.00  0.00     0.037 A 
ATOM     29  C   UNL d   1       2.101  -4.767  -3.450  0.00  0.00     0.032 A 
ATOM     30  C   UNL d   1       1.781  -3.493  -3.021  0.00  0.00     0.031 A 
BRANCH  28  31
ATOM     31  N   UNL d   1       2.563  -7.166  -3.116  0.00  0.00    -0.318 N 
ATOM     32  C   UNL d   1       1.576  -7.781  -3.975  0.00  0.00     0.159 C 
ATOM     33  C   UNL d   1       3.785  -7.763  -2.738  0.00  0.00     0.263 C 
ATOM     34  O   UNL d   1       4.078  -8.856  -3.340  0.00  0.00    -0.267 OA
BRANCH  33  35
ATOM     35  C   UNL d   1       4.733  -7.272  -1.751  0.00  0.00     0.161 C 
BRANCH  35  36
ATOM     36  N   UNL d   1       5.926  -7.994  -1.556  0.00  0.00    -0.382 N 
ATOM     37  C   UNL d   1       6.678  -7.726  -0.369  0.00  0.00     0.152 C 
ATOM     38  C   UNL d   1       7.217  -9.072   0.122  0.00  0.00     0.291 C 
ATOM     39  N   UNL d   1       8.148  -9.624  -0.860  0.00  0.00     0.087 N 
ATOM     40  C   UNL d   1       9.322  -8.780  -0.990  0.00  0.00     0.310 C 
ATOM     41  C   UNL d   1       7.490  -9.702  -2.155  0.00  0.00     0.291 C 
ATOM     42  C   UNL d   1       6.021  -9.317  -2.041  0.00  0.00     0.152 C 
ENDBRANCH  35  36
ENDBRANCH  33  35
ENDBRANCH  28  31
ENDBRANCH   2  25
TORSDOF 8
