REMARK  5 active torsions:
REMARK  status: ('A' for Active; 'I' for Inactive)
REMARK    1  A    between atoms: C_2  and  C_5 
REMARK    2  A    between atoms: C_6  and  C_7 
REMARK    3  A    between atoms: C_7  and  CA_8 
REMARK    4  A    between atoms: CA_13  and  C_14 
REMARK    5  A    between atoms: C_14  and  C_15 
ROOT
ATOM      1  CA  UNL d   1      -7.321  -2.049  -1.940  0.00  0.00     0.106 A 
ATOM      2  N   UNL d   1      -7.150  -3.307  -1.439  0.00  0.00    -0.317 N 
ATOM      3  HN  UNL d   1      -6.412  -3.500  -0.761  1.00  0.00     0.169 HD
ATOM      4  C   UNL d   1      -7.971  -4.288  -1.857  0.00  0.00     0.273 A 
ATOM      5  O   UNL d   1      -7.865  -5.473  -1.431  0.00  0.00    -0.266 OA
ATOM      6  CA  UNL d   1      -8.977  -4.057  -2.772  0.00  0.00     0.104 A 
ATOM      7  N   UNL d   1      -9.133  -2.810  -3.256  0.00  0.00    -0.317 N 
ATOM      8  HN  UNL d   1      -9.873  -2.626  -3.934  1.00  0.00     0.169 HD
ATOM      9  C   UNL d   1      -8.331  -1.800  -2.864  0.00  0.00     0.273 A 
ATOM     10  O   UNL d   1      -8.463  -0.631  -3.306  0.00  0.00    -0.266 OA
ENDROOT
BRANCH   1  11
ATOM     11  C   UNL d   1      -6.498  -1.133  -1.503  0.00  0.00     0.066 C 
BRANCH  11  12
ATOM     12  C   UNL d   1      -5.423  -1.284  -0.566  0.00  0.00     0.059 A 
ATOM     13  C   UNL d   1      -4.600  -0.238  -0.162  0.00  0.00     0.044 A 
ATOM     14  N   UNL d   1      -3.721  -0.741   0.706  0.00  0.00    -0.353 N 
ATOM     15  C   UNL d   1      -3.976  -2.054   0.847  0.00  0.00     0.181 A 
ATOM     16  HN  UNL d   1      -2.983  -0.220   1.181  1.00  0.00     0.166 HD
ATOM     17  N   UNL d   1      -5.023  -2.383   0.063  0.00  0.00    -0.351 N 
ATOM     18  HN  UNL d   1      -5.435  -3.311  -0.030  1.00  0.00     0.166 HD
BRANCH  13  19
ATOM     19  C   UNL d   1      -4.695   1.172  -0.621  0.00  0.00    -0.006 C 
ATOM     20  C   UNL d   1      -4.481   1.296  -2.119  0.00  0.00     0.021 C 
ATOM     21  C   UNL d   1      -3.606   2.005   0.044  0.00  0.00     0.021 C 
ATOM     22  C   UNL d   1      -6.024   1.743  -0.195  0.00  0.00     0.021 C 
ENDBRANCH  13  19
ENDBRANCH  11  12
ENDBRANCH   1  11
BRANCH   6  23
ATOM     23  C   UNL d   1      -9.801  -5.005  -3.201  0.00  0.00     0.050 C 
BRANCH  23  24
ATOM     24  C   UNL d   1     -10.830  -4.787  -4.183  0.00  0.00     0.008 A 
ATOM     25  C   UNL d   1     -10.490  -4.409  -5.466  0.00  0.00     0.056 A 
ATOM     26  C   UNL d   1     -11.514  -4.212  -6.371  0.00  0.00     0.117 A 
ATOM     27  F   UNL d   1     -11.220  -3.837  -7.649  0.00  0.00    -0.206 F 
ATOM     28  C   UNL d   1     -12.853  -4.382  -6.028  0.00  0.00     0.045 A 
ATOM     29  C   UNL d   1     -13.168  -4.764  -4.730  0.00  0.00     0.046 A 
ATOM     30  C   UNL d   1     -12.158  -4.964  -3.816  0.00  0.00     0.126 A 
ATOM     31  F   UNL d   1     -12.469  -5.331  -2.568  0.00  0.00    -0.205 F 
ENDBRANCH  23  24
ENDBRANCH   6  23
TORSDOF 5
