REMARK  6 active torsions:
REMARK  status: ('A' for Active; 'I' for Inactive)
REMARK    1  A    between atoms: N_2  and  C_4 
REMARK    2  A    between atoms: C_7  and  C_8 
REMARK    3  A    between atoms: C_11  and  N_12 
REMARK       I    between atoms: N_12  and  C_14 
REMARK       I    between atoms: C_14  and  N_16 
REMARK    4  A    between atoms: N_16  and  C_18 
REMARK    5  A    between atoms: C_21  and  O_22 
REMARK    6  A    between atoms: O_22  and  C_23 
ROOT
ATOM      1  C   UNL d   1      -2.880  -0.977  -0.090  0.00  0.00    -0.025 A 
ATOM      2  C   UNL d   1      -1.746  -0.243   0.075  0.00  0.00     0.014 A 
ATOM      3  C   UNL d   1      -0.547  -0.881   0.312  0.00  0.00     0.030 A 
ATOM      4  C   UNL d   1      -0.421  -2.253   0.394  0.00  0.00     0.036 A 
ATOM      5  C   UNL d   1      -1.567  -2.994   0.227  0.00  0.00     0.030 A 
ATOM      6  C   UNL d   1      -2.774  -2.372  -0.011  0.00  0.00     0.014 A 
ENDROOT
BRANCH   4   7
ATOM      7  N   UNL d   1       0.859  -2.843   0.643  0.00  0.00    -0.309 N 
ATOM      8  C   UNL d   1       1.070  -4.219   0.510  0.00  0.00     0.325 C 
ATOM      9  O   UNL d   1       0.126  -4.941   0.100  0.00  0.00    -0.247 OA
ATOM     10  N   UNL d   1       2.295  -4.886   0.807  0.00  0.00    -0.309 N 
ATOM     11  HN  UNL d   1       3.081  -4.358   1.187  1.00  0.00     0.170 HD
ATOM     12  HN  UNL d   1       1.636  -2.246   0.925  1.00  0.00     0.170 HD
BRANCH  10  13
ATOM     13  C   UNL d   1       2.430  -6.302   0.576  0.00  0.00     0.036 A 
ATOM     14  C   UNL d   1       1.527  -6.992  -0.187  0.00  0.00     0.032 A 
ATOM     15  C   UNL d   1       1.705  -8.367  -0.381  0.00  0.00     0.039 A 
ATOM     16  C   UNL d   1       2.792  -9.025   0.200  0.00  0.00     0.078 A 
ATOM     17  C   UNL d   1       3.702  -8.317   0.972  0.00  0.00     0.039 A 
ATOM     18  C   UNL d   1       3.502  -6.947   1.149  0.00  0.00     0.032 A 
BRANCH  16  19
ATOM     19  O   UNL d   1       2.901 -10.386  -0.037  0.00  0.00    -0.255 OA
BRANCH  19  20
ATOM     20  C   UNL d   1       1.986 -11.095  -0.857  0.00  0.00     0.530 C 
ATOM     21  F   UNL d   1       2.356 -12.433  -0.968  0.00  0.00    -0.144 F 
ATOM     22  F   UNL d   1       0.692 -10.987  -0.380  0.00  0.00    -0.144 F 
ATOM     23  F   UNL d   1       1.960 -10.578  -2.157  0.00  0.00    -0.144 F 
ENDBRANCH  19  20
ENDBRANCH  16  19
ENDBRANCH  10  13
ENDBRANCH   4   7
BRANCH   1  24
ATOM     24  C   UNL d   1      -4.200  -0.452  -0.343  0.00  0.00    -0.010 A 
ATOM     25  C   UNL d   1      -4.997  -0.137   0.742  0.00  0.00     0.015 A 
ATOM     26  C   UNL d   1      -6.271   0.375   0.594  0.00  0.00     0.033 A 
ATOM     27  C   UNL d   1      -6.782   0.586  -0.684  0.00  0.00     0.059 A 
ATOM     28  C   UNL d   1      -6.004   0.280  -1.776  0.00  0.00     0.089 A 
ATOM     29  N   UNL d   1      -6.186   0.358  -3.096  0.00  0.00    -0.296 N 
ATOM     30  C   UNL d   1      -4.730  -0.232  -1.596  0.00  0.00     0.048 A 
ATOM     31  N   UNL d   1      -5.142  -0.058  -3.761  0.00  0.00    -0.286 N 
ATOM     32  HN  UNL d   1      -7.041   0.703  -3.533  1.00  0.00     0.187 HD
ATOM     33  C   UNL d   1      -4.224  -0.431  -2.840  0.00  0.00     0.144 A 
ATOM     34  HN  UNL d   1      -5.039  -0.095  -4.775  1.00  0.00     0.188 HD
ATOM     35  N   UNL d   1      -2.956  -0.941  -3.162  0.00  0.00    -0.080 NA
BRANCH  27  36
ATOM     36  N   UNL d   1      -8.081   1.108  -0.896  0.00  0.00    -0.388 N 
ATOM     37  C   UNL d   1      -8.933   1.390   0.249  0.00  0.00     0.149 C 
ATOM     38  C   UNL d   1      -8.613   1.382  -2.234  0.00  0.00     0.149 C 
ENDBRANCH  27  36
ENDBRANCH   1  24
TORSDOF 6
