REMARK  3 active torsions:
REMARK  status: ('A' for Active; 'I' for Inactive)
REMARK    1  A    between atoms: C_2  and  C_3 
REMARK    2  A    between atoms: C_7  and  N_8 
REMARK       I    between atoms: N_8  and  C_10 
REMARK       I    between atoms: C_10  and  N_12 
REMARK    3  A    between atoms: N_12  and  C_14 
ROOT
ATOM      1  C   UNL d   1      -2.012   1.738  -3.637  0.00  0.00     0.036 A 
ATOM      2  C   UNL d   1      -2.789   2.835  -3.848  0.00  0.00     0.037 A 
ATOM      3  C   UNL d   1      -2.385   3.936  -4.623  0.00  0.00    -0.044 A 
ATOM      4  C   UNL d   1      -1.134   3.901  -5.201  0.00  0.00    -0.017 A 
ATOM      5  C   UNL d   1      -0.386   2.782  -4.965  0.00  0.00     0.015 A 
ATOM      6  C   UNL d   1      -0.763   1.707  -4.216  0.00  0.00     0.030 A 
ATOM      7  C   UNL d   1      -0.645   5.038  -6.037  0.00  0.00     0.004 A 
ATOM      8  C   UNL d   1      -1.579   6.054  -6.130  0.00  0.00    -0.003 A 
ATOM      9  C   UNL d   1      -2.932   6.129  -5.525  0.00  0.00     0.051 A 
ATOM     10  C   UNL d   1      -3.356   5.014  -4.732  0.00  0.00     0.044 A 
ATOM     11  S   UNL d   1      -0.768   7.317  -7.185  0.00  0.00    -0.075 SA
ATOM     12  C   UNL d   1       0.726   6.367  -7.394  0.00  0.00     0.089 A 
ATOM     13  C   UNL d   1       0.518   5.198  -6.676  0.00  0.00     0.051 A 
ATOM     14  C   UNL d   1       1.657   4.354  -6.772  0.00  0.00     0.131 A 
ATOM     15  N   UNL d   1       1.770   3.110  -6.167  0.00  0.00    -0.082 NA
ATOM     16  N   UNL d   1       2.732   4.763  -7.501  0.00  0.00    -0.340 N 
ATOM     17  HN  UNL d   1       3.532   4.132  -7.548  1.00  0.00     0.167 HD
ATOM     18  C   UNL d   1       2.827   5.917  -8.157  0.00  0.00     0.182 A 
ATOM     19  N   UNL d   1       1.745   6.742  -8.078  0.00  0.00    -0.346 N 
ATOM     20  HN  UNL d   1       1.745   7.643  -8.556  1.00  0.00     0.167 HD
ENDROOT
BRANCH   1  21
ATOM     21  N   UNL d   1      -2.482   0.658  -2.842  0.00  0.00    -0.309 N 
ATOM     22  C   UNL d   1      -3.616   0.872  -2.004  0.00  0.00     0.325 C 
ATOM     23  N   UNL d   1      -4.066  -0.268  -1.256  0.00  0.00    -0.309 N 
ATOM     24  O   UNL d   1      -4.186   1.992  -1.927  0.00  0.00    -0.247 OA
ATOM     25  HN  UNL d   1      -3.618  -1.175  -1.390  1.00  0.00     0.170 HD
ATOM     26  HN  UNL d   1      -2.018  -0.250  -2.869  1.00  0.00     0.170 HD
BRANCH  23  27
ATOM     27  C   UNL d   1      -5.137  -0.136  -0.328  0.00  0.00     0.036 A 
ATOM     28  C   UNL d   1      -5.676  -1.294   0.185  0.00  0.00     0.029 A 
ATOM     29  C   UNL d   1      -6.714  -1.172   1.085  0.00  0.00     0.003 A 
ATOM     30  C   UNL d   1      -7.191   0.069   1.456  0.00  0.00     0.007 A 
ATOM     31  C   UNL d   1      -6.620   1.203   0.917  0.00  0.00    -0.056 A 
ATOM     32  C   UNL d   1      -5.583   1.127   0.015  0.00  0.00     0.036 A 
BRANCH  31  33
ATOM     33  C   UNL d   1      -7.192   2.518   1.366  0.00  0.00     0.034 C 
ATOM     34  C   UNL d   1      -8.324   2.943   0.460  0.00  0.00     0.010 C 
ENDBRANCH  31  33
ENDBRANCH  23  27
ENDBRANCH   1  21
TORSDOF 3
