REMARK  7 active torsions:
REMARK  status: ('A' for Active; 'I' for Inactive)
REMARK    1  A    between atoms: C_2  and  C_4 
REMARK    2  A    between atoms: C_4  and  O_5 
REMARK    3  A    between atoms: O_5  and  C_6 
REMARK    4  A    between atoms: C_7  and  C_8 
REMARK    5  A    between atoms: C_10  and  N_11 
REMARK    6  A    between atoms: N_11  and  C_13 
REMARK    7  A    between atoms: C_16  and  N_17 
ROOT
ATOM      1  C   UNL d   1      -2.620  -0.902   0.145  0.00  0.00    -0.017 A 
ATOM      2  C   UNL d   1      -3.534  -1.712  -0.489  0.00  0.00     0.061 A 
ATOM      3  C   UNL d   1      -4.465  -2.471   0.213  0.00  0.00     0.106 A 
ATOM      4  N   UNL d   1      -4.493  -2.428   1.557  0.00  0.00    -0.352 N 
ATOM      5  HN  UNL d   1      -5.172  -2.981   2.080  1.00  0.00     0.166 HD
ATOM      6  C   UNL d   1      -3.603  -1.638   2.206  0.00  0.00     0.090 A 
ATOM      7  C   UNL d   1      -2.666  -0.872   1.532  0.00  0.00     0.029 A 
ENDROOT
BRANCH   1   8
ATOM      8  C   UNL d   1      -1.657  -0.118  -0.622  0.00  0.00     0.026 A 
ATOM      9  C   UNL d   1      -1.421   1.220  -0.385  0.00  0.00     0.154 A 
ATOM     10  N   UNL d   1      -0.541   1.956  -1.079  0.00  0.00    -0.336 N 
ATOM     11  C   UNL d   1       0.156   1.361  -2.065  0.00  0.00     0.045 A 
ATOM     12  HN  UNL d   1      -0.403   2.944  -0.865  1.00  0.00     0.168 HD
ATOM     13  C   UNL d   1       1.075   2.112  -2.796  0.00  0.00     0.049 A 
ATOM     14  C   UNL d   1      -0.030   0.013  -2.360  0.00  0.00    -0.008 A 
ATOM     15  C   UNL d   1       1.792   1.490  -3.813  0.00  0.00     0.013 A 
ATOM     16  C   UNL d   1       1.610   0.147  -4.111  0.00  0.00     0.020 A 
ATOM     17 BR   UNL d   1       3.055   2.462  -4.840  0.00  0.00    -0.051 Br
ATOM     18  C   UNL d   1       0.686  -0.603  -3.375  0.00  0.00     0.015 A 
ATOM     19  C   UNL d   1      -0.945  -0.718  -1.626  0.00  0.00     0.030 A 
BRANCH   9  20
ATOM     20  O   UNL d   1      -2.124   1.863   0.624  0.00  0.00    -0.324 OA
BRANCH  20  21
ATOM     21  C   UNL d   1      -2.650   3.159   0.494  0.00  0.00     0.290 C 
BRANCH  21  22
ATOM     22  C   UNL d   1      -3.665   3.446   1.551  0.00  0.00     0.198 C 
ATOM     23  O   UNL d   1      -4.168   2.545   2.253  0.00  0.00    -0.646 OA
ATOM     24  O   UNL d   1      -4.021   4.785   1.711  0.00  0.00    -0.646 OA
ENDBRANCH  21  22
ENDBRANCH  20  21
ENDBRANCH   9  20
ENDBRANCH   1   8
BRANCH   3  25
ATOM     25  N   UNL d   1      -5.349  -3.264  -0.566  0.00  0.00    -0.342 N 
ATOM     26  HN  UNL d   1      -5.227  -3.235  -1.578  1.00  0.00     0.167 HD
BRANCH  25  27
ATOM     27  C   UNL d   1      -6.375  -4.082  -0.072  0.00  0.00     0.033 A 
ATOM     28  C   UNL d   1      -6.960  -5.013  -0.935  0.00  0.00     0.032 A 
ATOM     29  C   UNL d   1      -7.979  -5.845  -0.493  0.00  0.00     0.031 A 
ATOM     30  C   UNL d   1      -8.439  -5.779   0.791  0.00  0.00     0.030 A 
ATOM     31  C   UNL d   1      -7.887  -4.881   1.651  0.00  0.00     0.031 A 
ATOM     32  C   UNL d   1      -6.864  -4.042   1.218  0.00  0.00     0.032 A 
BRANCH  30  33
ATOM     33  N   UNL d   1      -9.482  -6.649   1.200  0.00  0.00    -0.377 N 
ATOM     34  C   UNL d   1      -9.761  -6.926   2.615  0.00  0.00     0.149 C 
ATOM     35  C   UNL d   1      -9.726  -8.456   2.708  0.00  0.00     0.187 C 
ATOM     36  O   UNL d   1     -10.795  -8.931   1.972  0.00  0.00    -0.388 OA
ATOM     37  C   UNL d   1     -10.722  -8.706   0.620  0.00  0.00     0.187 C 
ATOM     38  C   UNL d   1     -10.331  -7.312   0.230  0.00  0.00     0.149 C 
ENDBRANCH  30  33
ENDBRANCH  25  27
ENDBRANCH   3  25
TORSDOF 7
